 Entering Gaussian System, Link 0=g09
 Input=CaC1.gjf
 Output=CaC1.log
 Initial command:
 /share/apps/g09/l1.exe /scratch/Gau-17586.inp -scrdir=/scratch/
 Entering Link 1 = /share/apps/g09/l1.exe PID=     17587.
  
 Copyright (c) 1988,1990,1992,1993,1995,1998,2003,2009,2010,
            Gaussian, Inc.  All Rights Reserved.
  
 This is part of the Gaussian(R) 09 program.  It is based on
 the Gaussian(R) 03 system (copyright 2003, Gaussian, Inc.),
 the Gaussian(R) 98 system (copyright 1998, Gaussian, Inc.),
 the Gaussian(R) 94 system (copyright 1995, Gaussian, Inc.),
 the Gaussian 92(TM) system (copyright 1992, Gaussian, Inc.),
 the Gaussian 90(TM) system (copyright 1990, Gaussian, Inc.),
 the Gaussian 88(TM) system (copyright 1988, Gaussian, Inc.),
 the Gaussian 86(TM) system (copyright 1986, Carnegie Mellon
 University), and the Gaussian 82(TM) system (copyright 1983,
 Carnegie Mellon University). Gaussian is a federally registered
 trademark of Gaussian, Inc.
  
 This software contains proprietary and confidential information,
 including trade secrets, belonging to Gaussian, Inc.
  
 This software is provided under written license and may be
 used, copied, transmitted, or stored only in accord with that
 written license.
  
 The following legend is applicable only to US Government
 contracts under FAR:
  
                    RESTRICTED RIGHTS LEGEND
  
 Use, reproduction and disclosure by the US Government is
 subject to restrictions as set forth in subparagraphs (a)
 and (c) of the Commercial Computer Software - Restricted
 Rights clause in FAR 52.227-19.
  
 Gaussian, Inc.
 340 Quinnipiac St., Bldg. 40, Wallingford CT 06492
  
  
 ---------------------------------------------------------------
 Warning -- This program may not be used in any manner that
 competes with the business of Gaussian, Inc. or will provide
 assistance to any competitor of Gaussian, Inc.  The licensee
 of this program is prohibited from giving any competitor of
 Gaussian, Inc. access to this program.  By using this program,
 the user acknowledges that Gaussian, Inc. is engaged in the
 business of creating and licensing software in the field of
 computational chemistry and represents and warrants to the
 licensee that it is not a competitor of Gaussian, Inc. and that
 it will not use this program in any manner prohibited above.
 ---------------------------------------------------------------
  

 Cite this work as:
 Gaussian 09, Revision B.01,
 M. J. Frisch, G. W. Trucks, H. B. Schlegel, G. E. Scuseria, 
 M. A. Robb, J. R. Cheeseman, G. Scalmani, V. Barone, B. Mennucci, 
 G. A. Petersson, H. Nakatsuji, M. Caricato, X. Li, H. P. Hratchian, 
 A. F. Izmaylov, J. Bloino, G. Zheng, J. L. Sonnenberg, M. Hada, 
 M. Ehara, K. Toyota, R. Fukuda, J. Hasegawa, M. Ishida, T. Nakajima, 
 Y. Honda, O. Kitao, H. Nakai, T. Vreven, J. A. Montgomery, Jr., 
 J. E. Peralta, F. Ogliaro, M. Bearpark, J. J. Heyd, E. Brothers, 
 K. N. Kudin, V. N. Staroverov, T. Keith, R. Kobayashi, J. Normand, 
 K. Raghavachari, A. Rendell, J. C. Burant, S. S. Iyengar, J. Tomasi, 
 M. Cossi, N. Rega, J. M. Millam, M. Klene, J. E. Knox, J. B. Cross, 
 V. Bakken, C. Adamo, J. Jaramillo, R. Gomperts, R. E. Stratmann, 
 O. Yazyev, A. J. Austin, R. Cammi, C. Pomelli, J. W. Ochterski, 
 R. L. Martin, K. Morokuma, V. G. Zakrzewski, G. A. Voth, 
 P. Salvador, J. J. Dannenberg, S. Dapprich, A. D. Daniels, 
 O. Farkas, J. B. Foresman, J. V. Ortiz, J. Cioslowski, 
 and D. J. Fox, Gaussian, Inc., Wallingford CT, 2010.
 
 ******************************************
 Gaussian 09:  AM64L-G09RevB.01 12-Aug-2010
                12-Jun-2025 
 ******************************************
 %nprocshared=16
 Will use up to   16 processors via shared memory.
 %mem=20GB
 ---------------------------------------------------
 # opt freq b3lyp/6-31g(d) geom=connectivity scf=xqc
 ---------------------------------------------------
 1/14=-1,18=20,19=15,26=3,38=1,57=2/1,3;
 2/9=110,12=2,17=6,18=5,40=1/2;
 3/5=1,6=6,7=1,11=2,16=1,25=1,30=1,71=1,74=-5/1,2,3;
 4//1;
 5/5=2,8=3,13=1,38=5/2,8;
 6/7=2,8=2,9=2,10=2,28=1/1;
 7//1,2,3,16;
 1/14=-1,18=20,19=15/3(2);
 2/9=110/2;
 99//99;
 2/9=110/2;
 3/5=1,6=6,7=1,11=2,16=1,25=1,30=1,71=1,74=-5/1,2,3;
 4/5=5,16=3/1;
 5/5=2,8=3,13=1,38=5/2,8;
 7//1,2,3,16;
 1/14=-1,18=20,19=15/3(-5);
 2/9=110/2;
 6/7=2,8=2,9=2,10=2,19=2,28=1/1;
 99/9=1/99;
 -------
 CaC-opt
 -------
 Symbolic Z-matrix:
 Charge =  0 Multiplicity = 1
 C                    -1.4273    0.0281    0. 
 C                    -0.6893    1.25      0. 
 C                    -0.7379   -1.2219    0. 
 C                     0.7379    1.2219    0. 
 C                     0.6893   -1.25      0. 
 C                     1.4273   -0.0281    0. 
 C                    -2.8492    0.056     0. 
 C                    -1.3761    2.4953    0. 
 C                    -1.4731   -2.4393    0. 
 C                     1.4731    2.4393    0. 
 C                     1.3761   -2.4953    0. 
 C                     2.8492   -0.056     0. 
 C                    -3.5584   -1.1786    0. 
 C                    -2.7999    2.4921    0. 
 C                    -3.5093    1.3175    0. 
 C                     2.8957    2.3802    0. 
 C                     2.7999   -2.4921    0. 
 C                    -0.7584   -3.6707    0. 
 C                     3.5584    1.1786    0. 
 C                     0.6135   -3.6977    0. 
 C                    -2.8957   -2.3802    0. 
 C                     3.5093   -1.3175    0. 
 C                    -0.6135    3.6977    0. 
 C                     0.7584    3.6707    0. 
 H                    -4.6456   -1.1545    0. 
 H                    -3.3229    3.4456    0. 
 H                    -4.5966    1.3362    0. 
 H                     4.6456    1.1545    0. 
 H                     3.3229   -3.4456    0. 
 H                    -3.4557   -3.3124    0. 
 H                     1.141    -4.6487    0. 
 H                     3.4557    3.3124    0. 
 H                    -1.141     4.6487    0. 
 H                    -1.3229   -4.6002    0. 
 H                     4.5966   -1.3362    0. 
 H                     1.3229    4.6003    0. 
 C                     0.7251    1.0767   -1.3373 
 O                     1.2962    0.0351   -1.3391 
 O                     0.154     2.1184   -1.3355 
 

 GradGradGradGradGradGradGradGradGradGradGradGradGradGradGradGradGradGrad
 Berny optimization.
 Initialization pass.
                           ----------------------------
                           !    Initial Parameters    !
                           ! (Angstroms and Degrees)  !
 --------------------------                            --------------------------
 ! Name  Definition              Value          Derivative Info.                !
 --------------------------------------------------------------------------------
 ! R1    R(1,2)                  1.4275         estimate D2E/DX2                !
 ! R2    R(1,3)                  1.4275         estimate D2E/DX2                !
 ! R3    R(1,7)                  1.4222         estimate D2E/DX2                !
 ! R4    R(2,4)                  1.4275         estimate D2E/DX2                !
 ! R5    R(2,8)                  1.4221         estimate D2E/DX2                !
 ! R6    R(2,39)                 1.8025         estimate D2E/DX2                !
 ! R7    R(3,5)                  1.4275         estimate D2E/DX2                !
 ! R8    R(3,9)                  1.4222         estimate D2E/DX2                !
 ! R9    R(4,6)                  1.4275         estimate D2E/DX2                !
 ! R10   R(4,10)                 1.4222         estimate D2E/DX2                !
 ! R11   R(4,37)                 1.3452         estimate D2E/DX2                !
 ! R12   R(4,39)                 1.7112         estimate D2E/DX2                !
 ! R13   R(5,6)                  1.4275         estimate D2E/DX2                !
 ! R14   R(5,11)                 1.4221         estimate D2E/DX2                !
 ! R15   R(6,12)                 1.4222         estimate D2E/DX2                !
 ! R16   R(6,37)                 1.8714         estimate D2E/DX2                !
 ! R17   R(6,38)                 1.347          estimate D2E/DX2                !
 ! R18   R(7,13)                 1.4238         estimate D2E/DX2                !
 ! R19   R(7,15)                 1.4238         estimate D2E/DX2                !
 ! R20   R(8,14)                 1.4238         estimate D2E/DX2                !
 ! R21   R(8,23)                 1.4238         estimate D2E/DX2                !
 ! R22   R(9,18)                 1.4238         estimate D2E/DX2                !
 ! R23   R(9,21)                 1.4238         estimate D2E/DX2                !
 ! R24   R(10,16)                1.4238         estimate D2E/DX2                !
 ! R25   R(10,24)                1.4238         estimate D2E/DX2                !
 ! R26   R(11,17)                1.4238         estimate D2E/DX2                !
 ! R27   R(11,20)                1.4238         estimate D2E/DX2                !
 ! R28   R(12,19)                1.4238         estimate D2E/DX2                !
 ! R29   R(12,22)                1.4238         estimate D2E/DX2                !
 ! R30   R(13,21)                1.3722         estimate D2E/DX2                !
 ! R31   R(13,25)                1.0875         estimate D2E/DX2                !
 ! R32   R(14,15)                1.3722         estimate D2E/DX2                !
 ! R33   R(14,26)                1.0875         estimate D2E/DX2                !
 ! R34   R(15,27)                1.0875         estimate D2E/DX2                !
 ! R35   R(16,19)                1.3722         estimate D2E/DX2                !
 ! R36   R(16,32)                1.0875         estimate D2E/DX2                !
 ! R37   R(17,22)                1.3722         estimate D2E/DX2                !
 ! R38   R(17,29)                1.0875         estimate D2E/DX2                !
 ! R39   R(18,20)                1.3722         estimate D2E/DX2                !
 ! R40   R(18,34)                1.0875         estimate D2E/DX2                !
 ! R41   R(19,28)                1.0875         estimate D2E/DX2                !
 ! R42   R(20,31)                1.0875         estimate D2E/DX2                !
 ! R43   R(21,30)                1.0875         estimate D2E/DX2                !
 ! R44   R(22,35)                1.0875         estimate D2E/DX2                !
 ! R45   R(23,24)                1.3722         estimate D2E/DX2                !
 ! R46   R(23,33)                1.0875         estimate D2E/DX2                !
 ! R47   R(24,36)                1.0876         estimate D2E/DX2                !
 ! R48   R(37,38)                1.1879         estimate D2E/DX2                !
 ! R49   R(37,39)                1.188          estimate D2E/DX2                !
 ! A1    A(2,1,3)              119.9914         estimate D2E/DX2                !
 ! A2    A(2,1,7)              120.0069         estimate D2E/DX2                !
 ! A3    A(3,1,7)              120.0017         estimate D2E/DX2                !
 ! A4    A(1,2,4)              120.0031         estimate D2E/DX2                !
 ! A5    A(1,2,8)              119.9916         estimate D2E/DX2                !
 ! A6    A(1,2,39)             130.8657         estimate D2E/DX2                !
 ! A7    A(4,2,8)              120.0053         estimate D2E/DX2                !
 ! A8    A(8,2,39)              78.7008         estimate D2E/DX2                !
 ! A9    A(1,3,5)              120.0056         estimate D2E/DX2                !
 ! A10   A(1,3,9)              119.9942         estimate D2E/DX2                !
 ! A11   A(5,3,9)              120.0003         estimate D2E/DX2                !
 ! A12   A(2,4,6)              120.0056         estimate D2E/DX2                !
 ! A13   A(2,4,10)             120.0003         estimate D2E/DX2                !
 ! A14   A(2,4,37)              89.5767         estimate D2E/DX2                !
 ! A15   A(6,4,10)             119.9942         estimate D2E/DX2                !
 ! A16   A(6,4,39)             128.5755         estimate D2E/DX2                !
 ! A17   A(10,4,37)             95.5846         estimate D2E/DX2                !
 ! A18   A(10,4,39)             74.2126         estimate D2E/DX2                !
 ! A19   A(3,5,6)              120.0031         estimate D2E/DX2                !
 ! A20   A(3,5,11)             120.0053         estimate D2E/DX2                !
 ! A21   A(6,5,11)             119.9916         estimate D2E/DX2                !
 ! A22   A(4,6,5)              119.9914         estimate D2E/DX2                !
 ! A23   A(4,6,12)             120.0017         estimate D2E/DX2                !
 ! A24   A(4,6,38)              84.9463         estimate D2E/DX2                !
 ! A25   A(5,6,12)             120.0069         estimate D2E/DX2                !
 ! A26   A(5,6,37)             108.1408         estimate D2E/DX2                !
 ! A27   A(5,6,38)              89.4181         estimate D2E/DX2                !
 ! A28   A(12,6,37)            112.7519         estimate D2E/DX2                !
 ! A29   A(12,6,38)             95.6373         estimate D2E/DX2                !
 ! A30   A(1,7,13)             118.7506         estimate D2E/DX2                !
 ! A31   A(1,7,15)             118.7456         estimate D2E/DX2                !
 ! A32   A(13,7,15)            122.5038         estimate D2E/DX2                !
 ! A33   A(2,8,14)             118.7486         estimate D2E/DX2                !
 ! A34   A(2,8,23)             118.7385         estimate D2E/DX2                !
 ! A35   A(14,8,23)            122.5129         estimate D2E/DX2                !
 ! A36   A(3,9,18)             118.7411         estimate D2E/DX2                !
 ! A37   A(3,9,21)             118.7493         estimate D2E/DX2                !
 ! A38   A(18,9,21)            122.5096         estimate D2E/DX2                !
 ! A39   A(4,10,16)            118.7493         estimate D2E/DX2                !
 ! A40   A(4,10,24)            118.7411         estimate D2E/DX2                !
 ! A41   A(16,10,24)           122.5096         estimate D2E/DX2                !
 ! A42   A(5,11,17)            118.7486         estimate D2E/DX2                !
 ! A43   A(5,11,20)            118.7385         estimate D2E/DX2                !
 ! A44   A(17,11,20)           122.5129         estimate D2E/DX2                !
 ! A45   A(6,12,19)            118.7506         estimate D2E/DX2                !
 ! A46   A(6,12,22)            118.7456         estimate D2E/DX2                !
 ! A47   A(19,12,22)           122.5038         estimate D2E/DX2                !
 ! A48   A(7,13,21)            121.248          estimate D2E/DX2                !
 ! A49   A(7,13,25)            118.6048         estimate D2E/DX2                !
 ! A50   A(21,13,25)           120.1472         estimate D2E/DX2                !
 ! A51   A(8,14,15)            121.2587         estimate D2E/DX2                !
 ! A52   A(8,14,26)            118.6162         estimate D2E/DX2                !
 ! A53   A(15,14,26)           120.1251         estimate D2E/DX2                !
 ! A54   A(7,15,14)            121.2486         estimate D2E/DX2                !
 ! A55   A(7,15,27)            118.6068         estimate D2E/DX2                !
 ! A56   A(14,15,27)           120.1446         estimate D2E/DX2                !
 ! A57   A(10,16,19)           121.2563         estimate D2E/DX2                !
 ! A58   A(10,16,32)           118.6156         estimate D2E/DX2                !
 ! A59   A(19,16,32)           120.1281         estimate D2E/DX2                !
 ! A60   A(11,17,22)           121.2587         estimate D2E/DX2                !
 ! A61   A(11,17,29)           118.6162         estimate D2E/DX2                !
 ! A62   A(22,17,29)           120.1251         estimate D2E/DX2                !
 ! A63   A(9,18,20)            121.2582         estimate D2E/DX2                !
 ! A64   A(9,18,34)            118.5983         estimate D2E/DX2                !
 ! A65   A(20,18,34)           120.1435         estimate D2E/DX2                !
 ! A66   A(12,19,16)           121.248          estimate D2E/DX2                !
 ! A67   A(12,19,28)           118.6048         estimate D2E/DX2                !
 ! A68   A(16,19,28)           120.1472         estimate D2E/DX2                !
 ! A69   A(11,20,18)           121.2567         estimate D2E/DX2                !
 ! A70   A(11,20,31)           118.5996         estimate D2E/DX2                !
 ! A71   A(18,20,31)           120.1437         estimate D2E/DX2                !
 ! A72   A(9,21,13)            121.2563         estimate D2E/DX2                !
 ! A73   A(9,21,30)            118.6156         estimate D2E/DX2                !
 ! A74   A(13,21,30)           120.1281         estimate D2E/DX2                !
 ! A75   A(12,22,17)           121.2486         estimate D2E/DX2                !
 ! A76   A(12,22,35)           118.6068         estimate D2E/DX2                !
 ! A77   A(17,22,35)           120.1446         estimate D2E/DX2                !
 ! A78   A(8,23,24)            121.2567         estimate D2E/DX2                !
 ! A79   A(8,23,33)            118.5996         estimate D2E/DX2                !
 ! A80   A(24,23,33)           120.1437         estimate D2E/DX2                !
 ! A81   A(10,24,23)           121.2582         estimate D2E/DX2                !
 ! A82   A(10,24,36)           118.601          estimate D2E/DX2                !
 ! A83   A(23,24,36)           120.1408         estimate D2E/DX2                !
 ! A84   A(4,37,38)             95.2543         estimate D2E/DX2                !
 ! A85   A(6,37,39)            134.185          estimate D2E/DX2                !
 ! A86   A(2,39,37)             78.672          estimate D2E/DX2                !
 ! A87   L(38,37,39,2,-1)      180.0015         estimate D2E/DX2                !
 ! A88   L(38,37,39,2,-2)      179.9981         estimate D2E/DX2                !
 ! D1    D(3,1,2,4)              0.0            estimate D2E/DX2                !
 ! D2    D(3,1,2,8)            180.0            estimate D2E/DX2                !
 ! D3    D(3,1,2,39)            78.4513         estimate D2E/DX2                !
 ! D4    D(7,1,2,4)            180.0            estimate D2E/DX2                !
 ! D5    D(7,1,2,8)              0.0            estimate D2E/DX2                !
 ! D6    D(7,1,2,39)          -101.5487         estimate D2E/DX2                !
 ! D7    D(2,1,3,5)              0.0            estimate D2E/DX2                !
 ! D8    D(2,1,3,9)            180.0            estimate D2E/DX2                !
 ! D9    D(7,1,3,5)            180.0            estimate D2E/DX2                !
 ! D10   D(7,1,3,9)              0.0            estimate D2E/DX2                !
 ! D11   D(2,1,7,13)           180.0            estimate D2E/DX2                !
 ! D12   D(2,1,7,15)             0.0            estimate D2E/DX2                !
 ! D13   D(3,1,7,13)             0.0            estimate D2E/DX2                !
 ! D14   D(3,1,7,15)           180.0            estimate D2E/DX2                !
 ! D15   D(1,2,4,6)              0.0            estimate D2E/DX2                !
 ! D16   D(1,2,4,10)           180.0            estimate D2E/DX2                !
 ! D17   D(1,2,4,37)            83.7938         estimate D2E/DX2                !
 ! D18   D(8,2,4,6)            180.0            estimate D2E/DX2                !
 ! D19   D(8,2,4,10)             0.0            estimate D2E/DX2                !
 ! D20   D(8,2,4,37)           -96.2062         estimate D2E/DX2                !
 ! D21   D(1,2,8,14)             0.0            estimate D2E/DX2                !
 ! D22   D(1,2,8,23)           180.0            estimate D2E/DX2                !
 ! D23   D(4,2,8,14)           180.0            estimate D2E/DX2                !
 ! D24   D(4,2,8,23)             0.0            estimate D2E/DX2                !
 ! D25   D(39,2,8,14)          130.9239         estimate D2E/DX2                !
 ! D26   D(39,2,8,23)          -49.0761         estimate D2E/DX2                !
 ! D27   D(1,2,39,37)          -59.7521         estimate D2E/DX2                !
 ! D28   D(8,2,39,37)         -179.831          estimate D2E/DX2                !
 ! D29   D(1,3,5,6)              0.0            estimate D2E/DX2                !
 ! D30   D(1,3,5,11)           180.0            estimate D2E/DX2                !
 ! D31   D(9,3,5,6)            180.0            estimate D2E/DX2                !
 ! D32   D(9,3,5,11)             0.0            estimate D2E/DX2                !
 ! D33   D(1,3,9,18)           180.0            estimate D2E/DX2                !
 ! D34   D(1,3,9,21)             0.0            estimate D2E/DX2                !
 ! D35   D(5,3,9,18)             0.0            estimate D2E/DX2                !
 ! D36   D(5,3,9,21)           180.0            estimate D2E/DX2                !
 ! D37   D(2,4,6,5)              0.0            estimate D2E/DX2                !
 ! D38   D(2,4,6,12)           180.0            estimate D2E/DX2                !
 ! D39   D(2,4,6,38)            86.3988         estimate D2E/DX2                !
 ! D40   D(10,4,6,5)           180.0            estimate D2E/DX2                !
 ! D41   D(10,4,6,12)            0.0            estimate D2E/DX2                !
 ! D42   D(10,4,6,38)          -93.6012         estimate D2E/DX2                !
 ! D43   D(39,4,6,5)           -86.643          estimate D2E/DX2                !
 ! D44   D(39,4,6,12)           93.357          estimate D2E/DX2                !
 ! D45   D(39,4,6,38)           -0.2441         estimate D2E/DX2                !
 ! D46   D(2,4,10,16)          180.0            estimate D2E/DX2                !
 ! D47   D(2,4,10,24)            0.0            estimate D2E/DX2                !
 ! D48   D(6,4,10,16)            0.0            estimate D2E/DX2                !
 ! D49   D(6,4,10,24)          180.0            estimate D2E/DX2                !
 ! D50   D(37,4,10,16)         -87.2556         estimate D2E/DX2                !
 ! D51   D(37,4,10,24)          92.7444         estimate D2E/DX2                !
 ! D52   D(39,4,10,16)        -125.8023         estimate D2E/DX2                !
 ! D53   D(39,4,10,24)          54.1977         estimate D2E/DX2                !
 ! D54   D(2,4,37,38)         -120.0483         estimate D2E/DX2                !
 ! D55   D(10,4,37,38)         119.8406         estimate D2E/DX2                !
 ! D56   D(3,5,6,4)              0.0            estimate D2E/DX2                !
 ! D57   D(3,5,6,12)           180.0            estimate D2E/DX2                !
 ! D58   D(3,5,6,37)           -48.7628         estimate D2E/DX2                !
 ! D59   D(3,5,6,38)           -83.8245         estimate D2E/DX2                !
 ! D60   D(11,5,6,4)           180.0            estimate D2E/DX2                !
 ! D61   D(11,5,6,12)            0.0            estimate D2E/DX2                !
 ! D62   D(11,5,6,37)          131.2372         estimate D2E/DX2                !
 ! D63   D(11,5,6,38)           96.1755         estimate D2E/DX2                !
 ! D64   D(3,5,11,17)          180.0            estimate D2E/DX2                !
 ! D65   D(3,5,11,20)            0.0            estimate D2E/DX2                !
 ! D66   D(6,5,11,17)            0.0            estimate D2E/DX2                !
 ! D67   D(6,5,11,20)          180.0            estimate D2E/DX2                !
 ! D68   D(4,6,12,19)            0.0            estimate D2E/DX2                !
 ! D69   D(4,6,12,22)          180.0            estimate D2E/DX2                !
 ! D70   D(5,6,12,19)          180.0            estimate D2E/DX2                !
 ! D71   D(5,6,12,22)            0.0            estimate D2E/DX2                !
 ! D72   D(37,6,12,19)          50.7965         estimate D2E/DX2                !
 ! D73   D(37,6,12,22)        -129.2035         estimate D2E/DX2                !
 ! D74   D(38,6,12,19)          87.4082         estimate D2E/DX2                !
 ! D75   D(38,6,12,22)         -92.5918         estimate D2E/DX2                !
 ! D76   D(5,6,37,39)          114.7266         estimate D2E/DX2                !
 ! D77   D(12,6,37,39)        -110.1951         estimate D2E/DX2                !
 ! D78   D(1,7,13,21)            0.0            estimate D2E/DX2                !
 ! D79   D(1,7,13,25)          180.0            estimate D2E/DX2                !
 ! D80   D(15,7,13,21)         180.0            estimate D2E/DX2                !
 ! D81   D(15,7,13,25)           0.0            estimate D2E/DX2                !
 ! D82   D(1,7,15,14)            0.0            estimate D2E/DX2                !
 ! D83   D(1,7,15,27)          180.0            estimate D2E/DX2                !
 ! D84   D(13,7,15,14)         180.0            estimate D2E/DX2                !
 ! D85   D(13,7,15,27)           0.0            estimate D2E/DX2                !
 ! D86   D(2,8,14,15)            0.0            estimate D2E/DX2                !
 ! D87   D(2,8,14,26)          180.0            estimate D2E/DX2                !
 ! D88   D(23,8,14,15)         180.0            estimate D2E/DX2                !
 ! D89   D(23,8,14,26)           0.0            estimate D2E/DX2                !
 ! D90   D(2,8,23,24)            0.0            estimate D2E/DX2                !
 ! D91   D(2,8,23,33)          180.0            estimate D2E/DX2                !
 ! D92   D(14,8,23,24)         180.0            estimate D2E/DX2                !
 ! D93   D(14,8,23,33)           0.0            estimate D2E/DX2                !
 ! D94   D(3,9,18,20)            0.0            estimate D2E/DX2                !
 ! D95   D(3,9,18,34)          180.0            estimate D2E/DX2                !
 ! D96   D(21,9,18,20)         180.0            estimate D2E/DX2                !
 ! D97   D(21,9,18,34)           0.0            estimate D2E/DX2                !
 ! D98   D(3,9,21,13)            0.0            estimate D2E/DX2                !
 ! D99   D(3,9,21,30)          180.0            estimate D2E/DX2                !
 ! D100  D(18,9,21,13)         180.0            estimate D2E/DX2                !
 ! D101  D(18,9,21,30)           0.0            estimate D2E/DX2                !
 ! D102  D(4,10,16,19)           0.0            estimate D2E/DX2                !
 ! D103  D(4,10,16,32)         180.0            estimate D2E/DX2                !
 ! D104  D(24,10,16,19)        180.0            estimate D2E/DX2                !
 ! D105  D(24,10,16,32)          0.0            estimate D2E/DX2                !
 ! D106  D(4,10,24,23)           0.0            estimate D2E/DX2                !
 ! D107  D(4,10,24,36)         180.0            estimate D2E/DX2                !
 ! D108  D(16,10,24,23)        180.0            estimate D2E/DX2                !
 ! D109  D(16,10,24,36)          0.0            estimate D2E/DX2                !
 ! D110  D(5,11,17,22)           0.0            estimate D2E/DX2                !
 ! D111  D(5,11,17,29)         180.0            estimate D2E/DX2                !
 ! D112  D(20,11,17,22)        180.0            estimate D2E/DX2                !
 ! D113  D(20,11,17,29)          0.0            estimate D2E/DX2                !
 ! D114  D(5,11,20,18)           0.0            estimate D2E/DX2                !
 ! D115  D(5,11,20,31)         180.0            estimate D2E/DX2                !
 ! D116  D(17,11,20,18)        180.0            estimate D2E/DX2                !
 ! D117  D(17,11,20,31)          0.0            estimate D2E/DX2                !
 ! D118  D(6,12,19,16)           0.0            estimate D2E/DX2                !
 ! D119  D(6,12,19,28)         180.0            estimate D2E/DX2                !
 ! D120  D(22,12,19,16)        180.0            estimate D2E/DX2                !
 ! D121  D(22,12,19,28)          0.0            estimate D2E/DX2                !
 ! D122  D(6,12,22,17)           0.0            estimate D2E/DX2                !
 ! D123  D(6,12,22,35)         180.0            estimate D2E/DX2                !
 ! D124  D(19,12,22,17)        180.0            estimate D2E/DX2                !
 ! D125  D(19,12,22,35)          0.0            estimate D2E/DX2                !
 ! D126  D(7,13,21,9)            0.0            estimate D2E/DX2                !
 ! D127  D(7,13,21,30)         180.0            estimate D2E/DX2                !
 ! D128  D(25,13,21,9)         180.0            estimate D2E/DX2                !
 ! D129  D(25,13,21,30)          0.0            estimate D2E/DX2                !
 ! D130  D(8,14,15,7)            0.0            estimate D2E/DX2                !
 ! D131  D(8,14,15,27)         180.0            estimate D2E/DX2                !
 ! D132  D(26,14,15,7)         180.0            estimate D2E/DX2                !
 ! D133  D(26,14,15,27)          0.0            estimate D2E/DX2                !
 ! D134  D(10,16,19,12)          0.0            estimate D2E/DX2                !
 ! D135  D(10,16,19,28)        180.0            estimate D2E/DX2                !
 ! D136  D(32,16,19,12)        180.0            estimate D2E/DX2                !
 ! D137  D(32,16,19,28)          0.0            estimate D2E/DX2                !
 ! D138  D(11,17,22,12)          0.0            estimate D2E/DX2                !
 ! D139  D(11,17,22,35)        180.0            estimate D2E/DX2                !
 ! D140  D(29,17,22,12)        180.0            estimate D2E/DX2                !
 ! D141  D(29,17,22,35)          0.0            estimate D2E/DX2                !
 ! D142  D(9,18,20,11)           0.0            estimate D2E/DX2                !
 ! D143  D(9,18,20,31)         180.0            estimate D2E/DX2                !
 ! D144  D(34,18,20,11)        180.0            estimate D2E/DX2                !
 ! D145  D(34,18,20,31)          0.0            estimate D2E/DX2                !
 ! D146  D(8,23,24,10)           0.0            estimate D2E/DX2                !
 ! D147  D(8,23,24,36)         180.0            estimate D2E/DX2                !
 ! D148  D(33,23,24,10)        180.0            estimate D2E/DX2                !
 ! D149  D(33,23,24,36)          0.0            estimate D2E/DX2                !
 ! D150  D(6,37,39,2)          -44.5061         estimate D2E/DX2                !
 --------------------------------------------------------------------------------
 Trust Radius=3.00D-01 FncErr=1.00D-07 GrdErr=1.00D-06
 Number of steps in this run=    234 maximum allowed number of steps=    234.
 GradGradGradGradGradGradGradGradGradGradGradGradGradGradGradGradGradGrad

                          Input orientation:                          
 ---------------------------------------------------------------------
 Center     Atomic      Atomic             Coordinates (Angstroms)
 Number     Number       Type             X           Y           Z
 ---------------------------------------------------------------------
      1          6           0       -1.427300    0.028100    0.000000
      2          6           0       -0.689300    1.250000    0.000000
      3          6           0       -0.737900   -1.221900    0.000000
      4          6           0        0.737900    1.221900    0.000000
      5          6           0        0.689300   -1.250000    0.000000
      6          6           0        1.427300   -0.028100    0.000000
      7          6           0       -2.849200    0.056000    0.000000
      8          6           0       -1.376100    2.495300    0.000000
      9          6           0       -1.473100   -2.439300    0.000000
     10          6           0        1.473100    2.439300    0.000000
     11          6           0        1.376100   -2.495300    0.000000
     12          6           0        2.849200   -0.056000    0.000000
     13          6           0       -3.558400   -1.178600    0.000000
     14          6           0       -2.799900    2.492100    0.000000
     15          6           0       -3.509300    1.317500    0.000000
     16          6           0        2.895700    2.380200    0.000000
     17          6           0        2.799900   -2.492100    0.000000
     18          6           0       -0.758400   -3.670700    0.000000
     19          6           0        3.558400    1.178600    0.000000
     20          6           0        0.613500   -3.697700    0.000000
     21          6           0       -2.895700   -2.380200    0.000000
     22          6           0        3.509300   -1.317500    0.000000
     23          6           0       -0.613500    3.697700    0.000000
     24          6           0        0.758400    3.670700    0.000000
     25          1           0       -4.645600   -1.154500    0.000000
     26          1           0       -3.322900    3.445600    0.000000
     27          1           0       -4.596600    1.336200    0.000000
     28          1           0        4.645600    1.154500    0.000000
     29          1           0        3.322900   -3.445600    0.000000
     30          1           0       -3.455700   -3.312400    0.000000
     31          1           0        1.141000   -4.648700    0.000000
     32          1           0        3.455700    3.312400    0.000000
     33          1           0       -1.141000    4.648700    0.000000
     34          1           0       -1.322900   -4.600200    0.000000
     35          1           0        4.596600   -1.336200    0.000000
     36          1           0        1.322900    4.600300    0.000000
     37          6           0        0.725100    1.076700   -1.337300
     38          8           0        1.296200    0.035100   -1.339100
     39          8           0        0.154000    2.118400   -1.335500
 ---------------------------------------------------------------------
                    Distance matrix (angstroms):
                    1          2          3          4          5
     1  C    0.000000
     2  C    1.427475   0.000000
     3  C    1.427506   2.472378   0.000000
     4  C    2.472499   1.427477   2.854846   0.000000
     5  C    2.472556   2.854915   1.427477   2.472378   0.000000
     6  C    2.855153   2.472556   2.472499   1.427506   1.427475
     7  C    1.422174   2.467955   2.467917   3.771818   3.771819
     8  C    2.467731   1.422134   3.771588   2.467903   4.277049
     9  C    2.467825   3.771641   1.422175   4.277021   2.467875
    10  C    3.771764   2.467875   4.277021   1.422175   3.771641
    11  C    3.771816   4.277049   2.467903   3.771588   1.422134
    12  C    4.277327   3.771819   3.771818   2.467917   2.467955
    13  C    2.449023   3.758967   2.820832   4.921442   4.248300
    14  C    2.820519   2.448968   4.248016   3.758914   5.116427
    15  C    2.448934   2.820808   3.758884   4.248276   4.921412
    16  C    4.921453   3.758933   5.116461   2.449032   4.248123
    17  C    4.921446   5.116427   3.758914   4.248016   2.448968
    18  C    3.758796   4.921185   2.448886   5.116292   2.820572
    19  C    5.116723   4.248300   4.921442   2.820832   3.758967
    20  C    4.248111   5.116349   2.820615   4.921173   2.448873
    21  C    2.820657   4.248123   2.449032   5.116461   3.758933
    22  C    5.116704   4.921412   4.248276   3.758884   2.820808
    23  C    3.758754   2.448873   4.921173   2.820615   5.116349
    24  C    4.248037   2.820572   5.116292   2.448886   4.921185
    25  H    3.428702   4.629679   3.908281   5.884671   5.335755
    26  H    3.908018   3.428777   5.335521   4.629788   6.176278
    27  H    3.428642   3.908251   4.629626   5.335724   5.884655
    28  H    6.176479   5.335755   5.884671   3.908281   4.629679
    29  H    5.884810   6.176278   4.629788   5.335521   3.428777
    30  H    3.908113   5.335585   3.428794   6.176258   4.629743
    31  H    5.335600   6.176136   3.908097   5.884423   3.428585
    32  H    5.884753   4.629743   6.176258   3.428794   5.335585
    33  H    4.629461   3.428585   5.884423   3.908097   6.176136
    34  H    4.629477   5.884411   3.428576   6.176062   3.908042
    35  H    6.176462   5.884655   5.335724   4.629626   3.908251
    36  H    5.335599   3.908127   6.176157   3.428675   5.884510
    37  C    2.742400   1.954209   3.035177   1.345220   2.683875
    38  O    3.034912   2.685401   2.740584   1.874402   1.952690
    39  O    2.941670   1.802452   3.706299   1.711202   3.662817
                    6          7          8          9         10
     6  C    0.000000
     7  C    4.277327   0.000000
     8  C    3.771816   2.849598   0.000000
     9  C    3.771764   2.849592   4.935553   0.000000
    10  C    2.467825   4.935828   2.849750   5.699196   0.000000
    11  C    2.467731   4.935817   5.699184   2.849750   4.935553
    12  C    1.422174   5.699501   4.935817   4.935828   2.849592
    13  C    5.116723   1.423798   4.273169   2.436768   6.197192
    14  C    4.921446   2.436599   1.423804   5.106770   4.273326
    15  C    5.116704   1.423768   2.436751   4.273132   5.107127
    16  C    2.820657   6.197240   4.273350   6.504921   1.423827
    17  C    2.820519   6.197188   6.504855   4.273326   5.106770
    18  C    4.248037   4.273141   6.196863   1.423777   6.504744
    19  C    2.449023   6.505196   5.107151   6.197192   2.436768
    20  C    3.758754   5.106912   6.504749   2.436692   6.196909
    21  C    4.921453   2.436644   5.106827   1.423827   6.504921
    22  C    2.448934   6.505154   6.197143   5.107127   4.273132
    23  C    4.248111   4.273211   1.423841   6.196909   2.436692
    24  C    3.758796   5.106940   2.436730   6.504744   1.423777
    25  H    6.176479   2.166186   4.900068   3.422786   7.096047
    26  H    5.884810   3.422540   2.166356   6.168777   4.900434
    27  H    6.176462   2.166176   3.422738   4.900067   6.169124
    28  H    3.428702   7.574875   6.169167   7.096047   3.422786
    29  H    3.908018   7.096198   7.574622   4.900434   6.168777
    30  H    5.884753   3.422566   6.168802   2.166335   7.574637
    31  H    4.629461   6.168946   7.574466   3.422713   7.095776
    32  H    3.908113   7.096189   4.900402   7.574637   2.166335
    33  H    5.335600   4.900086   2.166196   7.095776   3.422713
    34  H    5.335513   4.899979   7.095699   2.166114   7.574442
    35  H    3.428642   7.574837   7.096023   6.169124   4.900067
    36  H    4.629577   6.169042   3.422810   7.574535   2.166214
    37  C    1.871374   3.950420   2.866328   4.356915   2.050501
    38  O    1.346986   4.356371   3.871300   3.947767   2.757655
    39  O    2.830603   3.880240   2.065628   5.020323   1.904353
                   11         12         13         14         15
    11  C    0.000000
    12  C    2.849598   0.000000
    13  C    5.107151   6.505196   0.000000
    14  C    6.504855   6.197188   3.748248   0.000000
    15  C    6.197143   6.505154   2.496583   1.372200   0.000000
    16  C    5.106827   2.436644   7.370242   5.696699   6.492562
    17  C    1.423804   2.436599   6.492554   7.496667   7.370146
    18  C    2.436730   5.106940   3.748408   6.492136   5.696454
    19  C    4.273169   1.423798   7.497015   6.492554   7.069065
    20  C    1.423841   4.273211   4.873460   7.068587   6.492281
    21  C    4.273350   6.197240   1.372230   4.873242   3.748265
    22  C    2.436751   1.423768   7.069065   7.370146   7.496931
    23  C    6.504749   5.106912   5.696555   2.496761   3.748468
    24  C    6.196863   4.273141   6.492340   3.748413   4.873481
    25  H    6.169167   7.574875   1.087467   4.087089   2.720655
    26  H    7.574622   7.096198   4.630193   1.087516   2.136248
    27  H    7.096023   7.574837   2.720676   2.136407   1.087461
    28  H    4.900068   2.166186   8.529301   7.564697   8.156529
    29  H    2.166356   3.422540   7.245107   8.529066   8.328630
    30  H    4.900402   7.096189   2.136270   5.841429   4.630210
    31  H    2.166196   4.900086   5.841742   8.156085   7.564445
    32  H    6.168802   3.422566   8.328666   6.309154   7.245057
    33  H    7.574466   6.168946   6.308823   2.720822   4.087265
    34  H    3.422748   6.168968   4.087151   7.244463   6.308686
    35  H    3.422738   2.166176   8.156523   8.328511   8.529228
    36  H    7.095799   4.900074   7.564574   4.630549   5.841826
    37  C    3.869284   2.753758   5.022263   4.027078   4.447078
    38  O    2.864000   2.052632   5.180096   4.960652   5.150783
    39  O    4.956139   3.711560   5.141564   3.263240   3.980549
                   16         17         18         19         20
    16  C    0.000000
    17  C    4.873242   0.000000
    18  C    7.068652   3.748413   0.000000
    19  C    1.372230   3.748248   6.492340   0.000000
    20  C    6.492250   2.496761   1.372166   5.696555   0.000000
    21  C    7.496781   5.696699   2.496686   7.370242   3.748372
    22  C    3.748265   1.372200   4.873481   2.496583   3.748468
    23  C    3.748372   7.068587   7.369825   4.873460   7.496497
    24  C    2.496686   6.492136   7.496455   3.748408   7.369825
    25  H    8.328584   7.564697   4.630506   8.529301   5.841746
    26  H    6.309205   8.529066   7.564284   7.245107   8.156101
    27  H    7.564687   8.328511   6.308790   8.156523   7.244673
    28  H    2.136467   4.087089   7.244706   1.087467   6.308857
    29  H    5.841442   1.087516   4.087503   4.630193   2.721103
    30  H    8.529125   6.309154   2.720994   8.328666   4.087401
    31  H    7.244612   2.720822   2.136400   6.308823   1.087500
    32  H    1.087473   5.841429   8.156122   2.136270   7.564364
    33  H    4.630447   8.156085   8.328193   5.841742   8.528814
    34  H    8.156137   4.630504   1.087488   7.564497   2.136387
    35  H    4.087137   2.136407   5.841739   2.720676   4.630526
    36  H    2.720762   7.244561   8.528848   4.087235   8.328268
    37  C    2.863387   4.339297   5.150432   3.134700   4.959407
    38  O    3.138644   3.231260   4.443819   2.866763   4.024061
    39  O    3.060885   5.480972   6.010800   3.775808   5.985125
                   21         22         23         24         25
    21  C    0.000000
    22  C    6.492562   0.000000
    23  C    6.492250   6.492281   0.000000
    24  C    7.068652   5.696454   1.372166   0.000000
    25  H    2.136467   8.156529   6.308857   7.244706   0.000000
    26  H    5.841442   8.328630   2.721103   4.087503   4.786487
    27  H    4.087137   8.529228   4.630526   5.841739   2.491182
    28  H    8.328584   2.720655   5.841746   4.630506   9.573812
    29  H    6.309205   2.136248   8.156101   7.564284   8.291329
    30  H    1.087473   7.245057   7.564364   8.156122   2.464223
    31  H    4.630447   4.087265   8.528814   8.328193   6.759747
    32  H    8.529125   4.630210   4.087401   2.720994   9.251176
    33  H    7.244612   7.564445   1.087500   2.136400   6.779333
    34  H    2.720680   5.841770   8.328169   8.528751   4.786772
    35  H    7.564687   1.087461   7.244673   6.308790   9.243986
    36  H    8.156223   6.308780   2.136430   1.087574   8.291002
    37  C    5.181575   3.907983   3.232625   2.918615   5.967499
    38  O    5.019849   2.918994   4.342209   3.911522   6.205910
    39  O    5.596573   4.984677   2.206084   2.135063   5.960838
                   26         27         28         29         30
    26  H    0.000000
    27  H    2.464119   0.000000
    28  H    8.291329   9.243986   0.000000
    29  H    9.573677   9.251167   4.786487   0.000000
    30  H    6.759305   4.786558   9.251176   6.779909   0.000000
    31  H    9.243598   8.290904   6.779333   2.491613   4.786998
    32  H    6.779909   8.291255   2.464223   6.759305   9.573684
    33  H    2.491613   4.786839   6.759747   9.243598   8.290775
    34  H    8.290651   6.779230   8.290933   4.787124   2.491438
    35  H    9.251167   9.573748   2.491182   2.464119   8.291255
    36  H    4.787148   6.759795   4.786844   8.290748   9.243692
    37  C    4.877126   5.493287   4.143036   5.384063   6.207387
    38  O    5.895828   6.181516   3.776867   4.244523   5.964855
    39  O    3.953967   4.996358   4.784050   6.540916   6.656357
                   31         32         33         34         35
    31  H    0.000000
    32  H    8.290775   0.000000
    33  H    9.573357   4.786998   0.000000
    34  H    2.464377   9.243606   9.250689   0.000000
    35  H    4.786839   4.786558   8.290904   6.759747   0.000000
    36  H    9.250789   2.491490   2.464375   9.573372   6.779317
    37  C    5.894196   3.773977   4.246161   6.181413   4.753837
    38  O    4.873937   4.146966   5.386876   5.489889   3.816581
    39  O    6.967881   3.756384   3.140542   7.007452   5.783988
                   36         37         38         39
    36  H    0.000000
    37  C    3.815952   0.000000
    38  O    4.757620   1.187893   0.000000
    39  O    3.051183   1.187980   2.375873   0.000000
 Stoichiometry    C25H12O2
 Framework group  C1[X(C25H12O2)]
 Deg. of freedom   111
 Full point group                 C1      NOp   1
 Largest Abelian subgroup         C1      NOp   1
 Largest concise Abelian subgroup C1      NOp   1
                         Standard orientation:                         
 ---------------------------------------------------------------------
 Center     Atomic      Atomic             Coordinates (Angstroms)
 Number     Number       Type             X           Y           Z
 ---------------------------------------------------------------------
      1          6           0        0.455449    1.454592   -0.126933
      2          6           0       -0.902028    1.016817   -0.184312
      3          6           0        1.513613    0.496779   -0.101312
      4          6           0       -1.201296   -0.378575   -0.216066
      5          6           0        1.214345   -0.898613   -0.133066
      6          6           0       -0.143132   -1.336388   -0.190446
      7          6           0        0.753699    2.844780   -0.095293
      8          6           0       -1.956215    1.971021   -0.209836
      9          6           0        2.866072    0.932861   -0.044146
     10          6           0       -2.553755   -0.814657   -0.273232
     11          6           0        2.268532   -1.852817   -0.107542
     12          6           0       -0.441381   -2.726576   -0.222085
     13          6           0        2.116939    3.251612   -0.038153
     14          6           0       -1.627279    3.355921   -0.177123
     15          6           0       -0.322357    3.776718   -0.121966
     16          6           0       -2.821815   -2.212688   -0.303854
     17          6           0        1.939596   -3.237717   -0.140255
     18          6           0        3.900354   -0.045304   -0.019721
     19          6           0       -1.804622   -3.133408   -0.279226
     20          6           0        3.612671   -1.386626   -0.050245
     21          6           0        3.134132    2.330892   -0.013524
     22          6           0        0.634674   -3.658514   -0.195413
     23          6           0       -3.300354    1.504831   -0.267133
     24          6           0       -3.588036    0.163508   -0.297657
     25          1           0        2.342292    4.315200   -0.014053
     26          1           0       -2.435104    4.083743   -0.196732
     27          1           0       -0.091728    4.839164   -0.097684
     28          1           0       -2.029975   -4.196996   -0.303326
     29          1           0        2.747421   -3.965539   -0.120646
     30          1           0        4.169073    2.661928    0.030182
     31          1           0        4.417034   -2.118254   -0.030822
     32          1           0       -3.856756   -2.543724   -0.347560
     33          1           0       -4.104717    2.236458   -0.286556
     34          1           0        4.933698    0.290731    0.023998
     35          1           0        0.404046   -4.720960   -0.219694
     36          1           0       -4.621478   -0.172504   -0.341380
     37          6           0       -1.107267   -0.419097    1.125252
     38          8           0       -0.224818   -1.213977    1.148477
     39          8           0       -1.989813    0.375805    1.102024
 ---------------------------------------------------------------------
 Rotational constants (GHZ):      0.3138370      0.3034353      0.1607215
 Standard basis: 6-31G(d) (6D, 7F)
 There are   429 symmetry adapted basis functions of A   symmetry.
 Integral buffers will be    131072 words long.
 Raffenetti 2 integral format.
 Two-electron integral symmetry is turned on.
   429 basis functions,   804 primitive gaussians,   429 cartesian basis functions
    89 alpha electrons       89 beta electrons
       nuclear repulsion energy      2455.1491312818 Hartrees.
 NAtoms=   39 NActive=   39 NUniq=   39 SFac= 1.00D+00 NAtFMM=   50 NAOKFM=F Big=F
 One-electron integrals computed using PRISM.
 NBasis=   429 RedAO= T  NBF=   429
 NBsUse=   429 1.00D-06 NBFU=   429
 Harris functional with IExCor=  402 diagonalized for initial guess.
 ExpMin= 1.61D-01 ExpMax= 5.48D+03 ExpMxC= 8.25D+02 IAcc=1 IRadAn=         1 AccDes= 0.00D+00
 HarFok:  IExCor=  402 AccDes= 0.00D+00 IRadAn=         1 IDoV= 1
 ScaDFX=  1.000000  1.000000  1.000000  1.000000
 FoFCou: FMM=F IPFlag=           0 FMFlag=      100000 FMFlg1=           0
         NFxFlg=           0 DoJE=T BraDBF=F KetDBF=T FulRan=T
         Omega=  0.000000  0.000000  1.000000  0.000000  0.000000 ICntrl=     500 IOpCl=  0
         NMat0=    1 NMatS0=    1 NMatT0=    0 NMatD0=    1 NMtDS0=    0 NMtDT0=    0
         I1Cent=           4 NGrid=           0.
 Petite list used in FoFCou.
 Initial guess orbital symmetries:
       Occupied  (A) (A) (A) (A) (A) (A) (A) (A) (A) (A) (A) (A)
                 (A) (A) (A) (A) (A) (A) (A) (A) (A) (A) (A) (A)
                 (A) (A) (A) (A) (A) (A) (A) (A) (A) (A) (A) (A)
                 (A) (A) (A) (A) (A) (A) (A) (A) (A) (A) (A) (A)
                 (A) (A) (A) (A) (A) (A) (A) (A) (A) (A) (A) (A)
                 (A) (A) (A) (A) (A) (A) (A) (A) (A) (A) (A) (A)
                 (A) (A) (A) (A) (A) (A) (A) (A) (A) (A) (A) (A)
                 (A) (A) (A) (A) (A)
       Virtual   (A) (A) (A) (A) (A) (A) (A) (A) (A) (A) (A) (A)
                 (A) (A) (A) (A) (A) (A) (A) (A) (A) (A) (A) (A)
                 (A) (A) (A) (A) (A) (A) (A) (A) (A) (A) (A) (A)
                 (A) (A) (A) (A) (A) (A) (A) (A) (A) (A) (A) (A)
                 (A) (A) (A) (A) (A) (A) (A) (A) (A) (A) (A) (A)
                 (A) (A) (A) (A) (A) (A) (A) (A) (A) (A) (A) (A)
                 (A) (A) (A) (A) (A) (A) (A) (A) (A) (A) (A) (A)
                 (A) (A) (A) (A) (A) (A) (A) (A) (A) (A) (A) (A)
                 (A) (A) (A) (A) (A) (A) (A) (A) (A) (A) (A) (A)
                 (A) (A) (A) (A) (A) (A) (A) (A) (A) (A) (A) (A)
                 (A) (A) (A) (A) (A) (A) (A) (A) (A) (A) (A) (A)
                 (A) (A) (A) (A) (A) (A) (A) (A) (A) (A) (A) (A)
                 (A) (A) (A) (A) (A) (A) (A) (A) (A) (A) (A) (A)
                 (A) (A) (A) (A) (A) (A) (A) (A) (A) (A) (A) (A)
                 (A) (A) (A) (A) (A) (A) (A) (A) (A) (A) (A) (A)
                 (A) (A) (A) (A) (A) (A) (A) (A) (A) (A) (A) (A)
                 (A) (A) (A) (A) (A) (A) (A) (A) (A) (A) (A) (A)
                 (A) (A) (A) (A) (A) (A) (A) (A) (A) (A) (A) (A)
                 (A) (A) (A) (A) (A) (A) (A) (A) (A) (A) (A) (A)
                 (A) (A) (A) (A) (A) (A) (A) (A) (A) (A) (A) (A)
                 (A) (A) (A) (A) (A) (A) (A) (A) (A) (A) (A) (A)
                 (A) (A) (A) (A) (A) (A) (A) (A) (A) (A) (A) (A)
                 (A) (A) (A) (A) (A) (A) (A) (A) (A) (A) (A) (A)
                 (A) (A) (A) (A) (A) (A) (A) (A) (A) (A) (A) (A)
                 (A) (A) (A) (A) (A) (A) (A) (A) (A) (A) (A) (A)
                 (A) (A) (A) (A) (A) (A) (A) (A) (A) (A) (A) (A)
                 (A) (A) (A) (A) (A) (A) (A) (A) (A) (A) (A) (A)
                 (A) (A) (A) (A) (A) (A) (A) (A) (A) (A) (A) (A)
                 (A) (A) (A) (A)
 The electronic state of the initial guess is 1-A.
 Requested convergence on RMS density matrix=1.00D-08 within  64 cycles.
 Requested convergence on MAX density matrix=1.00D-06.
 Requested convergence on             energy=1.00D-06.
 No special actions if energy rises.
 Integral accuracy reduced to 1.0D-05 until final iterations.
 Initial convergence to 1.0D-05 achieved.  Increase integral accuracy.
 SCF Done:  E(RB3LYP) =  -1109.77106034     A.U. after   19 cycles
             Convg  =    0.5402D-08             -V/T =  2.0055
 QCSCF skips out because SCF is already converged.

 **********************************************************************

            Population analysis using the SCF density.

 **********************************************************************

 Orbital symmetries:
       Occupied  (A) (A) (A) (A) (A) (A) (A) (A) (A) (A) (A) (A)
                 (A) (A) (A) (A) (A) (A) (A) (A) (A) (A) (A) (A)
                 (A) (A) (A) (A) (A) (A) (A) (A) (A) (A) (A) (A)
                 (A) (A) (A) (A) (A) (A) (A) (A) (A) (A) (A) (A)
                 (A) (A) (A) (A) (A) (A) (A) (A) (A) (A) (A) (A)
                 (A) (A) (A) (A) (A) (A) (A) (A) (A) (A) (A) (A)
                 (A) (A) (A) (A) (A) (A) (A) (A) (A) (A) (A) (A)
                 (A) (A) (A) (A) (A)
       Virtual   (A) (A) (A) (A) (A) (A) (A) (A) (A) (A) (A) (A)
                 (A) (A) (A) (A) (A) (A) (A) (A) (A) (A) (A) (A)
                 (A) (A) (A) (A) (A) (A) (A) (A) (A) (A) (A) (A)
                 (A) (A) (A) (A) (A) (A) (A) (A) (A) (A) (A) (A)
                 (A) (A) (A) (A) (A) (A) (A) (A) (A) (A) (A) (A)
                 (A) (A) (A) (A) (A) (A) (A) (A) (A) (A) (A) (A)
                 (A) (A) (A) (A) (A) (A) (A) (A) (A) (A) (A) (A)
                 (A) (A) (A) (A) (A) (A) (A) (A) (A) (A) (A) (A)
                 (A) (A) (A) (A) (A) (A) (A) (A) (A) (A) (A) (A)
                 (A) (A) (A) (A) (A) (A) (A) (A) (A) (A) (A) (A)
                 (A) (A) (A) (A) (A) (A) (A) (A) (A) (A) (A) (A)
                 (A) (A) (A) (A) (A) (A) (A) (A) (A) (A) (A) (A)
                 (A) (A) (A) (A) (A) (A) (A) (A) (A) (A) (A) (A)
                 (A) (A) (A) (A) (A) (A) (A) (A) (A) (A) (A) (A)
                 (A) (A) (A) (A) (A) (A) (A) (A) (A) (A) (A) (A)
                 (A) (A) (A) (A) (A) (A) (A) (A) (A) (A) (A) (A)
                 (A) (A) (A) (A) (A) (A) (A) (A) (A) (A) (A) (A)
                 (A) (A) (A) (A) (A) (A) (A) (A) (A) (A) (A) (A)
                 (A) (A) (A) (A) (A) (A) (A) (A) (A) (A) (A) (A)
                 (A) (A) (A) (A) (A) (A) (A) (A) (A) (A) (A) (A)
                 (A) (A) (A) (A) (A) (A) (A) (A) (A) (A) (A) (A)
                 (A) (A) (A) (A) (A) (A) (A) (A) (A) (A) (A) (A)
                 (A) (A) (A) (A) (A) (A) (A) (A) (A) (A) (A) (A)
                 (A) (A) (A) (A) (A) (A) (A) (A) (A) (A) (A) (A)
                 (A) (A) (A) (A) (A) (A) (A) (A) (A) (A) (A) (A)
                 (A) (A) (A) (A) (A) (A) (A) (A) (A) (A) (A) (A)
                 (A) (A) (A) (A) (A) (A) (A) (A) (A) (A) (A) (A)
                 (A) (A) (A) (A) (A) (A) (A) (A) (A) (A) (A) (A)
                 (A) (A) (A) (A)
 The electronic state is 1-A.
 Alpha  occ. eigenvalues --  -19.23229 -19.12938 -10.32688 -10.25902 -10.22317
 Alpha  occ. eigenvalues --  -10.21684 -10.20223 -10.20211 -10.20113 -10.20107
 Alpha  occ. eigenvalues --  -10.19916 -10.19896 -10.19783 -10.19656 -10.19437
 Alpha  occ. eigenvalues --  -10.19335 -10.19248 -10.19190 -10.19162 -10.18982
 Alpha  occ. eigenvalues --  -10.18961 -10.18948 -10.18912 -10.18790 -10.18237
 Alpha  occ. eigenvalues --  -10.18217 -10.17967  -1.27782  -1.16003  -0.90512
 Alpha  occ. eigenvalues --   -0.87738  -0.86727  -0.83380  -0.82688  -0.82271
 Alpha  occ. eigenvalues --   -0.78852  -0.77177  -0.76662  -0.76491  -0.72096
 Alpha  occ. eigenvalues --   -0.71590  -0.68447  -0.66627  -0.65142  -0.63290
 Alpha  occ. eigenvalues --   -0.63241  -0.61187  -0.57782  -0.57375  -0.56549
 Alpha  occ. eigenvalues --   -0.56106  -0.55574  -0.53018  -0.51741  -0.51413
 Alpha  occ. eigenvalues --   -0.49971  -0.47892  -0.47365  -0.46411  -0.45995
 Alpha  occ. eigenvalues --   -0.45381  -0.45141  -0.43359  -0.42779  -0.42631
 Alpha  occ. eigenvalues --   -0.42040  -0.40825  -0.40098  -0.39876  -0.39300
 Alpha  occ. eigenvalues --   -0.38859  -0.37471  -0.36804  -0.36418  -0.35900
 Alpha  occ. eigenvalues --   -0.35574  -0.35101  -0.33566  -0.32134  -0.31788
 Alpha  occ. eigenvalues --   -0.30956  -0.29150  -0.28354  -0.25868  -0.23879
 Alpha  occ. eigenvalues --   -0.21560  -0.20071  -0.18015  -0.17338
 Alpha virt. eigenvalues --   -0.08540  -0.06249  -0.03224   0.00889   0.01881
 Alpha virt. eigenvalues --    0.03239   0.04428   0.04784   0.09335   0.10049
 Alpha virt. eigenvalues --    0.10301   0.10679   0.11026   0.11184   0.12309
 Alpha virt. eigenvalues --    0.13202   0.14721   0.14929   0.15592   0.16580
 Alpha virt. eigenvalues --    0.16789   0.18003   0.18478   0.19439   0.20111
 Alpha virt. eigenvalues --    0.20667   0.21014   0.24764   0.25084   0.25401
 Alpha virt. eigenvalues --    0.25532   0.26442   0.27872   0.27958   0.28704
 Alpha virt. eigenvalues --    0.28851   0.29554   0.31606   0.32861   0.34205
 Alpha virt. eigenvalues --    0.34763   0.35373   0.37429   0.40771   0.41372
 Alpha virt. eigenvalues --    0.42741   0.44665   0.45359   0.45638   0.46399
 Alpha virt. eigenvalues --    0.46463   0.47480   0.48126   0.48759   0.49396
 Alpha virt. eigenvalues --    0.51391   0.51758   0.51958   0.52195   0.53717
 Alpha virt. eigenvalues --    0.54162   0.54383   0.54863   0.55144   0.55525
 Alpha virt. eigenvalues --    0.56106   0.56705   0.57168   0.57494   0.58352
 Alpha virt. eigenvalues --    0.58585   0.59208   0.59320   0.59548   0.59621
 Alpha virt. eigenvalues --    0.60041   0.60421   0.60666   0.60995   0.61496
 Alpha virt. eigenvalues --    0.62033   0.63229   0.63575   0.63776   0.63894
 Alpha virt. eigenvalues --    0.65080   0.67451   0.68131   0.68295   0.69675
 Alpha virt. eigenvalues --    0.70397   0.71568   0.71763   0.76492   0.76985
 Alpha virt. eigenvalues --    0.77645   0.79222   0.79674   0.79938   0.81243
 Alpha virt. eigenvalues --    0.81347   0.81442   0.82375   0.82509   0.83003
 Alpha virt. eigenvalues --    0.83444   0.84709   0.84986   0.85271   0.85568
 Alpha virt. eigenvalues --    0.85813   0.86185   0.86371   0.87480   0.88207
 Alpha virt. eigenvalues --    0.89650   0.91354   0.92767   0.93360   0.94377
 Alpha virt. eigenvalues --    0.94406   0.96270   0.97544   0.97968   0.98501
 Alpha virt. eigenvalues --    0.98919   1.00401   1.01090   1.01208   1.03163
 Alpha virt. eigenvalues --    1.03354   1.04182   1.06475   1.07672   1.08562
 Alpha virt. eigenvalues --    1.09529   1.10090   1.10338   1.12881   1.13793
 Alpha virt. eigenvalues --    1.14307   1.15597   1.16133   1.16564   1.17670
 Alpha virt. eigenvalues --    1.19059   1.20826   1.21861   1.24289   1.24649
 Alpha virt. eigenvalues --    1.24812   1.26326   1.27102   1.28056   1.28941
 Alpha virt. eigenvalues --    1.30444   1.31900   1.32203   1.32944   1.34855
 Alpha virt. eigenvalues --    1.36274   1.36815   1.37660   1.39284   1.40209
 Alpha virt. eigenvalues --    1.41404   1.43350   1.44479   1.45244   1.46070
 Alpha virt. eigenvalues --    1.46452   1.47973   1.48220   1.48887   1.49994
 Alpha virt. eigenvalues --    1.50388   1.51554   1.53827   1.55642   1.56768
 Alpha virt. eigenvalues --    1.58090   1.61460   1.61956   1.63119   1.64653
 Alpha virt. eigenvalues --    1.66878   1.67315   1.68712   1.70636   1.71778
 Alpha virt. eigenvalues --    1.73673   1.76897   1.77213   1.77751   1.79293
 Alpha virt. eigenvalues --    1.80375   1.80976   1.82176   1.83364   1.84146
 Alpha virt. eigenvalues --    1.84501   1.86671   1.87340   1.89100   1.89457
 Alpha virt. eigenvalues --    1.90637   1.91063   1.91686   1.92397   1.93255
 Alpha virt. eigenvalues --    1.94438   1.95107   1.95688   1.95838   1.96813
 Alpha virt. eigenvalues --    1.97827   1.98609   1.99388   2.00138   2.01536
 Alpha virt. eigenvalues --    2.02349   2.02871   2.04258   2.04706   2.06317
 Alpha virt. eigenvalues --    2.06916   2.07401   2.09845   2.10232   2.11633
 Alpha virt. eigenvalues --    2.14383   2.17602   2.18165   2.19081   2.22427
 Alpha virt. eigenvalues --    2.23473   2.24382   2.25098   2.26594   2.27318
 Alpha virt. eigenvalues --    2.27575   2.28518   2.29157   2.29850   2.30832
 Alpha virt. eigenvalues --    2.31442   2.32064   2.32885   2.33311   2.34046
 Alpha virt. eigenvalues --    2.35203   2.36761   2.37869   2.38442   2.39901
 Alpha virt. eigenvalues --    2.40885   2.41525   2.42542   2.43440   2.46368
 Alpha virt. eigenvalues --    2.48309   2.49185   2.53975   2.54551   2.56832
 Alpha virt. eigenvalues --    2.58514   2.59838   2.61383   2.62131   2.63475
 Alpha virt. eigenvalues --    2.63609   2.66275   2.69580   2.70760   2.71777
 Alpha virt. eigenvalues --    2.72310   2.72730   2.74167   2.75842   2.76924
 Alpha virt. eigenvalues --    2.79760   2.81491   2.81841   2.82318   2.83102
 Alpha virt. eigenvalues --    2.83758   2.85699   2.85956   2.87335   2.88935
 Alpha virt. eigenvalues --    2.91245   2.93190   2.95771   2.97927   2.99920
 Alpha virt. eigenvalues --    3.00889   3.01574   3.02990   3.05794   3.07097
 Alpha virt. eigenvalues --    3.09241   3.10749   3.18632   3.21070   3.25936
 Alpha virt. eigenvalues --    3.31024   3.31404   3.35161   3.40715   3.40892
 Alpha virt. eigenvalues --    3.55033   3.63399   3.66739   4.08641   4.09990
 Alpha virt. eigenvalues --    4.11586   4.12509   4.12999   4.15646   4.16887
 Alpha virt. eigenvalues --    4.17867   4.18877   4.23900   4.27417   4.28438
 Alpha virt. eigenvalues --    4.31739   4.35166   4.38240   4.43410   4.49432
 Alpha virt. eigenvalues --    4.54494   4.56066   4.65473   4.70833   4.72052
 Alpha virt. eigenvalues --    4.79975   4.81410   4.99332   5.16950   5.35825
          Condensed to atoms (all electrons):
              1          2          3          4          5          6
     1  C    5.462954   0.276834   0.189222  -0.085251  -0.029379  -0.068310
     2  C    0.276834   5.585778  -0.026596   0.097511  -0.082618  -0.020383
     3  C    0.189222  -0.026596   5.351985  -0.077543   0.273056  -0.020023
     4  C   -0.085251   0.097511  -0.077543   6.429784  -0.001081   0.029551
     5  C   -0.029379  -0.082618   0.273056  -0.001081   5.552740   0.139564
     6  C   -0.068310  -0.020383  -0.020023   0.029551   0.139564   5.680759
     7  C    0.421032  -0.050780  -0.049758   0.016787   0.014319  -0.000683
     8  C   -0.052225   0.470259   0.012996  -0.000983  -0.000635   0.009818
     9  C   -0.054403   0.014972   0.443183  -0.000602  -0.052737   0.015582
    10  C    0.011192  -0.002399  -0.000470   0.346394   0.008470  -0.043534
    11  C    0.013963  -0.000843  -0.041373   0.011739   0.482423  -0.050898
    12  C   -0.000847   0.009089   0.012045  -0.022894  -0.053833   0.363862
    13  C    0.013204   0.019082  -0.083987  -0.000211  -0.002367   0.000004
    14  C   -0.082560   0.010967  -0.002407   0.019602   0.000005  -0.000016
    15  C    0.004860  -0.088990   0.018762  -0.002252  -0.000123  -0.000016
    16  C    0.000064   0.017554  -0.000044  -0.037911  -0.002892  -0.070022
    17  C   -0.000070  -0.000005   0.017582  -0.002990   0.004461  -0.083374
    18  C    0.018735  -0.000127   0.011265  -0.000015  -0.086841  -0.002472
    19  C   -0.000057  -0.002488  -0.000083  -0.082602   0.019687   0.020463
    20  C   -0.002331   0.000020  -0.084879  -0.000067   0.011503   0.020166
    21  C   -0.082786  -0.002531   0.012595  -0.000018   0.018835  -0.000153
    22  C   -0.000003  -0.000096  -0.002573   0.017730  -0.087204   0.019922
    23  C    0.018801   0.018677  -0.000081  -0.088755  -0.000029  -0.002562
    24  C   -0.003175  -0.082984  -0.000014   0.049303   0.000042   0.014992
    25  H    0.003368  -0.000222   0.001345   0.000004   0.000028  -0.000001
    26  H    0.001439   0.003627   0.000030  -0.000247  -0.000001   0.000001
    27  H    0.003539   0.001462  -0.000251   0.000028   0.000003  -0.000001
    28  H    0.000000   0.000024   0.000002   0.001428  -0.000235   0.003816
    29  H    0.000002  -0.000001  -0.000233   0.000028   0.003655   0.001362
    30  H    0.001407   0.000029   0.003165  -0.000001  -0.000234   0.000003
    31  H    0.000029  -0.000001   0.001492   0.000002   0.003453  -0.000276
    32  H    0.000001  -0.000232   0.000000   0.005329   0.000027   0.001274
    33  H   -0.000222   0.003286   0.000002   0.001178   0.000000   0.000027
    34  H   -0.000237   0.000003   0.003210  -0.000001   0.001454   0.000029
    35  H   -0.000001   0.000002   0.000029  -0.000186   0.001542   0.004103
    36  H    0.000031   0.001172  -0.000001   0.003920   0.000001  -0.000145
    37  C   -0.000352   0.020870   0.009633   0.369418   0.010433  -0.135735
    38  O    0.003354  -0.000598  -0.007137  -0.375840  -0.218291   0.238661
    39  O    0.017194  -0.165053   0.000322  -0.556554  -0.000777   0.035743
              7          8          9         10         11         12
     1  C    0.421032  -0.052225  -0.054403   0.011192   0.013963  -0.000847
     2  C   -0.050780   0.470259   0.014972  -0.002399  -0.000843   0.009089
     3  C   -0.049758   0.012996   0.443183  -0.000470  -0.041373   0.012045
     4  C    0.016787  -0.000983  -0.000602   0.346394   0.011739  -0.022894
     5  C    0.014319  -0.000635  -0.052737   0.008470   0.482423  -0.053833
     6  C   -0.000683   0.009818   0.015582  -0.043534  -0.050898   0.363862
     7  C    4.774089  -0.041367  -0.045907  -0.000113  -0.000054   0.000002
     8  C   -0.041367   4.804402  -0.000082  -0.037838  -0.000003  -0.000016
     9  C   -0.045907  -0.000082   4.813584  -0.000002  -0.046149  -0.000096
    10  C   -0.000113  -0.037838  -0.000002   4.769067  -0.000089  -0.034787
    11  C   -0.000054  -0.000003  -0.046149  -0.000089   4.745077  -0.036034
    12  C    0.000002  -0.000016  -0.000096  -0.034787  -0.036034   4.830258
    13  C    0.403918  -0.000359   0.015129  -0.000001   0.000068   0.000000
    14  C    0.016764   0.438984   0.000069  -0.000576   0.000000  -0.000002
    15  C    0.435156   0.007127  -0.000455   0.000073  -0.000001   0.000000
    16  C   -0.000002  -0.001039   0.000000   0.502011   0.000070   0.002113
    17  C   -0.000001   0.000000  -0.000442   0.000087   0.389267   0.003775
    18  C   -0.000458  -0.000001   0.414366   0.000000   0.013527   0.000070
    19  C    0.000000   0.000092  -0.000002   0.012024  -0.000640   0.478544
    20  C    0.000064   0.000000   0.014984  -0.000002   0.409437  -0.000219
    21  C    0.016639   0.000071   0.400953   0.000000  -0.000327  -0.000001
    22  C    0.000000  -0.000003   0.000086  -0.000476   0.015628   0.427168
    23  C   -0.000574   0.380546  -0.000001   0.021500   0.000000   0.000080
    24  C    0.000090   0.013666   0.000000   0.428219  -0.000002  -0.000414
    25  H   -0.034350   0.000014   0.001793   0.000000   0.000000   0.000000
    26  H    0.001704  -0.033784   0.000000   0.000018   0.000000   0.000000
    27  H   -0.035496   0.001878   0.000015   0.000000   0.000000   0.000000
    28  H    0.000000   0.000000   0.000000   0.001921   0.000023  -0.033052
    29  H    0.000000   0.000000   0.000013  -0.000001  -0.035791   0.001972
    30  H    0.001667   0.000000  -0.035820   0.000000   0.000010   0.000000
    31  H    0.000000   0.000000   0.001696   0.000000  -0.034692   0.000012
    32  H    0.000000   0.000026   0.000000  -0.029901   0.000000   0.002058
    33  H    0.000014  -0.035422   0.000000   0.001872   0.000000   0.000000
    34  H    0.000011   0.000000  -0.035759   0.000000   0.001718   0.000000
    35  H    0.000000   0.000000   0.000000   0.000027   0.001826  -0.035803
    36  H    0.000000   0.001935   0.000000  -0.037830   0.000000   0.000017
    37  C   -0.000677  -0.009173  -0.000020   0.011207  -0.000694   0.006312
    38  O   -0.000009   0.000335  -0.000812   0.002133   0.000031  -0.157974
    39  O   -0.000936  -0.131259   0.000001  -0.126408  -0.000008  -0.000305
             13         14         15         16         17         18
     1  C    0.013204  -0.082560   0.004860   0.000064  -0.000070   0.018735
     2  C    0.019082   0.010967  -0.088990   0.017554  -0.000005  -0.000127
     3  C   -0.083987  -0.002407   0.018762  -0.000044   0.017582   0.011265
     4  C   -0.000211   0.019602  -0.002252  -0.037911  -0.002990  -0.000015
     5  C   -0.002367   0.000005  -0.000123  -0.002892   0.004461  -0.086841
     6  C    0.000004  -0.000016  -0.000016  -0.070022  -0.083374  -0.002472
     7  C    0.403918   0.016764   0.435156  -0.000002  -0.000001  -0.000458
     8  C   -0.000359   0.438984   0.007127  -0.001039   0.000000  -0.000001
     9  C    0.015129   0.000069  -0.000455   0.000000  -0.000442   0.414366
    10  C   -0.000001  -0.000576   0.000073   0.502011   0.000087   0.000000
    11  C    0.000068   0.000000  -0.000001   0.000070   0.389267   0.013527
    12  C    0.000000  -0.000002   0.000000   0.002113   0.003775   0.000070
    13  C    5.199712   0.008996  -0.101402   0.000000   0.000001   0.008925
    14  C    0.008996   5.173590   0.416570  -0.000008   0.000000   0.000001
    15  C   -0.101402   0.416570   5.210094   0.000001   0.000000  -0.000013
    16  C    0.000000  -0.000008   0.000001   5.244835  -0.000373   0.000000
    17  C    0.000001   0.000000   0.000000  -0.000373   5.239733   0.009330
    18  C    0.008925   0.000001  -0.000013   0.000000   0.009330   5.182681
    19  C    0.000000   0.000001   0.000000   0.343303   0.008291   0.000001
    20  C   -0.000425   0.000000   0.000001   0.000000  -0.103958   0.431017
    21  C    0.424854  -0.000438   0.008917   0.000000  -0.000012  -0.102265
    22  C    0.000000   0.000000   0.000000   0.009163   0.432484  -0.000441
    23  C   -0.000013  -0.099620   0.009171   0.008821   0.000000   0.000000
    24  C    0.000001   0.009192  -0.000421  -0.096827   0.000000   0.000000
    25  H    0.351468   0.000193  -0.007165   0.000000   0.000000  -0.000203
    26  H   -0.000211   0.347069  -0.037919   0.000000   0.000000   0.000000
    27  H   -0.007174  -0.038633   0.350662   0.000000   0.000000   0.000000
    28  H    0.000000   0.000000   0.000000  -0.039853   0.000168   0.000000
    29  H    0.000000   0.000000   0.000000   0.000003   0.352056   0.000189
    30  H   -0.037146   0.000003  -0.000202   0.000000   0.000000  -0.006842
    31  H    0.000003   0.000000   0.000000   0.000000  -0.006615  -0.037786
    32  H    0.000000   0.000000   0.000000   0.351102   0.000003   0.000000
    33  H    0.000000  -0.006861   0.000191  -0.000183   0.000000   0.000000
    34  H    0.000197   0.000000   0.000000   0.000000  -0.000206   0.350450
    35  H    0.000000   0.000000   0.000000   0.000157  -0.038415   0.000003
    36  H    0.000000  -0.000150   0.000003  -0.006375   0.000000   0.000000
    37  C    0.000021  -0.001480   0.000200   0.002577  -0.000622   0.000015
    38  O    0.000000   0.000028   0.000003   0.001798   0.001528   0.000156
    39  O   -0.000001   0.001107   0.000849   0.007463   0.000004   0.000000
             19         20         21         22         23         24
     1  C   -0.000057  -0.002331  -0.082786  -0.000003   0.018801  -0.003175
     2  C   -0.002488   0.000020  -0.002531  -0.000096   0.018677  -0.082984
     3  C   -0.000083  -0.084879   0.012595  -0.002573  -0.000081  -0.000014
     4  C   -0.082602  -0.000067  -0.000018   0.017730  -0.088755   0.049303
     5  C    0.019687   0.011503   0.018835  -0.087204  -0.000029   0.000042
     6  C    0.020463   0.020166  -0.000153   0.019922  -0.002562   0.014992
     7  C    0.000000   0.000064   0.016639   0.000000  -0.000574   0.000090
     8  C    0.000092   0.000000   0.000071  -0.000003   0.380546   0.013666
     9  C   -0.000002   0.014984   0.400953   0.000086  -0.000001   0.000000
    10  C    0.012024  -0.000002   0.000000  -0.000476   0.021500   0.428219
    11  C   -0.000640   0.409437  -0.000327   0.015628   0.000000  -0.000002
    12  C    0.478544  -0.000219  -0.000001   0.427168   0.000080  -0.000414
    13  C    0.000000  -0.000425   0.424854   0.000000  -0.000013   0.000001
    14  C    0.000001   0.000000  -0.000438   0.000000  -0.099620   0.009192
    15  C    0.000000   0.000001   0.008917   0.000000   0.009171  -0.000421
    16  C    0.343303   0.000000   0.000000   0.009163   0.008821  -0.096827
    17  C    0.008291  -0.103958  -0.000012   0.432484   0.000000   0.000000
    18  C    0.000001   0.431017  -0.102265  -0.000441   0.000000   0.000000
    19  C    5.194122  -0.000013   0.000000  -0.093594  -0.000434   0.009140
    20  C   -0.000013   5.197480   0.008984   0.009280   0.000000   0.000000
    21  C    0.000000   0.008984   5.199215   0.000001   0.000001   0.000000
    22  C   -0.093594   0.009280   0.000001   5.145582   0.000001  -0.000017
    23  C   -0.000434   0.000000   0.000001   0.000001   5.227760   0.436035
    24  C    0.009140   0.000000   0.000000  -0.000017   0.436035   5.198381
    25  H    0.000000   0.000003  -0.038812   0.000000   0.000000   0.000000
    26  H    0.000000   0.000000   0.000003   0.000000  -0.006336   0.000191
    27  H    0.000000   0.000000   0.000195   0.000000  -0.000207   0.000003
    28  H    0.353529   0.000000   0.000000  -0.007410   0.000003  -0.000194
    29  H   -0.000199  -0.007278   0.000000  -0.037269   0.000000   0.000000
    30  H    0.000000   0.000203   0.351052   0.000000   0.000000   0.000000
    31  H    0.000000   0.349045  -0.000206   0.000171   0.000000   0.000000
    32  H   -0.041367   0.000000   0.000000  -0.000197   0.000177  -0.006447
    33  H    0.000003   0.000000   0.000000   0.000000   0.352364  -0.035789
    34  H    0.000000  -0.037405  -0.006756   0.000003   0.000000   0.000000
    35  H   -0.007201  -0.000188   0.000000   0.350686   0.000000   0.000000
    36  H    0.000154   0.000000   0.000000   0.000000  -0.039033   0.352349
    37  C    0.009106  -0.000001  -0.000040  -0.001208   0.008464  -0.011070
    38  O   -0.007699  -0.000445   0.000007   0.004359  -0.000219   0.000103
    39  O    0.000635   0.000000   0.000001   0.000014  -0.063715  -0.094731
             25         26         27         28         29         30
     1  C    0.003368   0.001439   0.003539   0.000000   0.000002   0.001407
     2  C   -0.000222   0.003627   0.001462   0.000024  -0.000001   0.000029
     3  C    0.001345   0.000030  -0.000251   0.000002  -0.000233   0.003165
     4  C    0.000004  -0.000247   0.000028   0.001428   0.000028  -0.000001
     5  C    0.000028  -0.000001   0.000003  -0.000235   0.003655  -0.000234
     6  C   -0.000001   0.000001  -0.000001   0.003816   0.001362   0.000003
     7  C   -0.034350   0.001704  -0.035496   0.000000   0.000000   0.001667
     8  C    0.000014  -0.033784   0.001878   0.000000   0.000000   0.000000
     9  C    0.001793   0.000000   0.000015   0.000000   0.000013  -0.035820
    10  C    0.000000   0.000018   0.000000   0.001921  -0.000001   0.000000
    11  C    0.000000   0.000000   0.000000   0.000023  -0.035791   0.000010
    12  C    0.000000   0.000000   0.000000  -0.033052   0.001972   0.000000
    13  C    0.351468  -0.000211  -0.007174   0.000000   0.000000  -0.037146
    14  C    0.000193   0.347069  -0.038633   0.000000   0.000000   0.000003
    15  C   -0.007165  -0.037919   0.350662   0.000000   0.000000  -0.000202
    16  C    0.000000   0.000000   0.000000  -0.039853   0.000003   0.000000
    17  C    0.000000   0.000000   0.000000   0.000168   0.352056   0.000000
    18  C   -0.000203   0.000000   0.000000   0.000000   0.000189  -0.006842
    19  C    0.000000   0.000000   0.000000   0.353529  -0.000199   0.000000
    20  C    0.000003   0.000000   0.000000   0.000000  -0.007278   0.000203
    21  C   -0.038812   0.000003   0.000195   0.000000   0.000000   0.351052
    22  C    0.000000   0.000000   0.000000  -0.007410  -0.037269   0.000000
    23  C    0.000000  -0.006336  -0.000207   0.000003   0.000000   0.000000
    24  C    0.000000   0.000191   0.000003  -0.000194   0.000000   0.000000
    25  H    0.588958  -0.000011   0.006536   0.000000   0.000000  -0.004418
    26  H   -0.000011   0.594133  -0.004548   0.000000   0.000000   0.000000
    27  H    0.006536  -0.004548   0.600339   0.000000   0.000000  -0.000011
    28  H    0.000000   0.000000   0.000000   0.581136  -0.000012   0.000000
    29  H    0.000000   0.000000   0.000000  -0.000012   0.590821   0.000000
    30  H   -0.004418   0.000000  -0.000011   0.000000   0.000000   0.589060
    31  H    0.000000   0.000000   0.000000   0.000000   0.006495  -0.000011
    32  H    0.000000   0.000000   0.000000  -0.004696   0.000000   0.000000
    33  H    0.000000   0.006007  -0.000011   0.000000   0.000000   0.000000
    34  H   -0.000011   0.000000   0.000000   0.000000  -0.000011   0.006437
    35  H    0.000000   0.000000   0.000000   0.006252  -0.004593   0.000000
    36  H    0.000000  -0.000016   0.000000  -0.000011   0.000000   0.000000
    37  C    0.000000  -0.000004   0.000000   0.000011   0.000001   0.000000
    38  O    0.000000   0.000000   0.000000  -0.000110  -0.000003   0.000000
    39  O    0.000000  -0.000121   0.000000   0.000005   0.000000   0.000000
             31         32         33         34         35         36
     1  C    0.000029   0.000001  -0.000222  -0.000237  -0.000001   0.000031
     2  C   -0.000001  -0.000232   0.003286   0.000003   0.000002   0.001172
     3  C    0.001492   0.000000   0.000002   0.003210   0.000029  -0.000001
     4  C    0.000002   0.005329   0.001178  -0.000001  -0.000186   0.003920
     5  C    0.003453   0.000027   0.000000   0.001454   0.001542   0.000001
     6  C   -0.000276   0.001274   0.000027   0.000029   0.004103  -0.000145
     7  C    0.000000   0.000000   0.000014   0.000011   0.000000   0.000000
     8  C    0.000000   0.000026  -0.035422   0.000000   0.000000   0.001935
     9  C    0.001696   0.000000   0.000000  -0.035759   0.000000   0.000000
    10  C    0.000000  -0.029901   0.001872   0.000000   0.000027  -0.037830
    11  C   -0.034692   0.000000   0.000000   0.001718   0.001826   0.000000
    12  C    0.000012   0.002058   0.000000   0.000000  -0.035803   0.000017
    13  C    0.000003   0.000000   0.000000   0.000197   0.000000   0.000000
    14  C    0.000000   0.000000  -0.006861   0.000000   0.000000  -0.000150
    15  C    0.000000   0.000000   0.000191   0.000000   0.000000   0.000003
    16  C    0.000000   0.351102  -0.000183   0.000000   0.000157  -0.006375
    17  C   -0.006615   0.000003   0.000000  -0.000206  -0.038415   0.000000
    18  C   -0.037786   0.000000   0.000000   0.350450   0.000003   0.000000
    19  C    0.000000  -0.041367   0.000003   0.000000  -0.007201   0.000154
    20  C    0.349045   0.000000   0.000000  -0.037405  -0.000188   0.000000
    21  C   -0.000206   0.000000   0.000000  -0.006756   0.000000   0.000000
    22  C    0.000171  -0.000197   0.000000   0.000003   0.350686   0.000000
    23  C    0.000000   0.000177   0.352364   0.000000   0.000000  -0.039033
    24  C    0.000000  -0.006447  -0.035789   0.000000   0.000000   0.352349
    25  H    0.000000   0.000000   0.000000  -0.000011   0.000000   0.000000
    26  H    0.000000   0.000000   0.006007   0.000000   0.000000  -0.000016
    27  H    0.000000   0.000000  -0.000011   0.000000   0.000000   0.000000
    28  H    0.000000  -0.004696   0.000000   0.000000   0.006252  -0.000011
    29  H    0.006495   0.000000   0.000000  -0.000011  -0.004593   0.000000
    30  H   -0.000011   0.000000   0.000000   0.006437   0.000000   0.000000
    31  H    0.591631   0.000000   0.000000  -0.004365  -0.000013   0.000000
    32  H    0.000000   0.586543  -0.000013   0.000000  -0.000010   0.005642
[...]
 0.00022105,-0.00004283,-0.00001881,0.00041032,0.00026952,0.00009281,-0
 .00123305,-0.00460983,0.00019614,0.02828953,0.00237223,0.00567940,-0.0
 0003451,-0.00013813,0.00000655,0.00004993,0.00000554,-0.00003002,0.000
 03370,-0.00005499,-0.00000270,-0.00063663,0.00029231,-0.00011484,-0.02
 897266,0.00486662,-0.00438985,-0.00022148,-0.00037940,0.00006850,0.001
 20405,0.00133309,0.00062136,-0.00112491,0.00083545,0.00000269,-0.00009
 299,0.00013565,0.00000456,0.00771695,-0.05937830,0.00033849,0.00017468
 ,0.00009863,0.00002864,-0.00025955,0.00009590,-0.00001213,-0.00000191,
 0.00000864,-0.00000379,0.00001720,0.00000308,-0.00000140,-0.00000043,0
 .00000140,0.00000145,-0.00089662,-0.00029402,-0.00024822,0.00030189,0.
 00101770,-0.00017406,0.00000097,-0.00000113,0.00000084,0.00001788,-0.0
 0003693,0.00000422,-0.00001411,-0.00000247,-0.00000694,0.00000065,-0.0
 0000020,-0.00000067,-0.00015539,-0.00000247,-0.00001592,-0.00654292,0.
 05901936,-0.00015722,-0.00007771,0.00006847,-0.00001452,0.00033439,-0.
 00005319,-0.00005577,-0.00012412,-0.00077157,-0.00040012,-0.00029938,-
 0.00001836,0.00013963,-0.00084066,-0.00038271,-0.00026530,0.00155860,0
 .00389432,0.00023031,0.00023427,0.00000064,-0.00019456,-0.00041059,-0.
 00001271,0.00040920,-0.00017290,0.00020570,0.00070141,-0.00040535,0.00
 008789,-0.00143483,-0.00054571,0.00893197,-0.00472500,0.00490460,0.001
 38337,-0.00000795,-0.00036351,0.00001240,0.00012708,0.00013237,-0.0000
 5689,0.00000369,-0.00018462,-0.00000012,-0.00086593,0.00079105,-0.0003
 6331,0.00022581,0.00260776,0.00332899,-0.00052618,-0.00005095,-0.00069
 422,0.00063212,-0.00208979,-0.00240323,0.00018678,0.00072136,0.0003588
 9,-0.00037138,0.00018522,0.00007372,-0.04921124,-0.00393841,-0.0433963
 8,0.00050493,0.00025174,0.00003791,-0.00051510,0.00036135,0.00007529,-
 0.00000584,-0.00000621,-0.00000917,-0.00000677,0.00000201,0.00000432,-
 0.00000429,0.00000174,0.00001089,0.00009069,0.00005687,0.00047022,0.00
 082272,-0.00023899,-0.00514073,-0.00000159,0.00000092,-0.00000237,0.00
 000129,0.00000023,0.00015177,-0.00002861,0.00000052,0.00010137,0.00000
 564,0.00000699,-0.00000281,-0.00005510,0.00000231,-0.00003406,0.054295
 79,-0.00220283,0.03341874,0.00008320,-0.00021301,0.00002910,-0.0003078
 9,0.00034141,0.00000183,-0.00014462,-0.00000340,0.00001042,-0.00185066
 ,0.00271792,-0.00016003,-0.00011945,0.00007854,0.00009634,0.00066367,0
 .00042464,0.00034527,0.00007112,0.00015424,-0.00003171,-0.00446884,0.0
 0272649,-0.00052617,0.00004346,-0.00001735,0.00000087,0.01071702,0.014
 73840,0.00357238,0.00001512,0.00005591,-0.00002344,0.00020784,0.000114
 42,0.00005222,0.00005516,-0.00009387,-0.00000469,0.00003416,-0.0016082
 0,-0.00001799,-0.00048401,0.00012379,0.00017595,0.00121877,0.00084229,
 0.00065493,0.00009453,0.00003687,0.00001362,-0.00000559,0.00003321,-0.
 00000241,0.00005380,-0.00043409,-0.00011249,0.00001199,0.00002420,-0.0
 0000771,-0.00008661,0.00002506,0.00000505,-0.00005218,-0.00016745,0.00
 000805,-0.01281344,-0.02940322,-0.00549463,-0.12723148,-0.11678981,-0.
 02741699,-0.00000556,0.00000207,0.00000137,-0.00003339,0.00004411,-0.0
 0002036,-0.00009229,-0.00014399,-0.00002723,0.00001083,-0.00001930,-0.
 00001211,0.00000102,-0.00000499,-0.00000396,0.00000299,-0.00001076,-0.
 00000085,0.00001078,0.00000450,-0.00000111,-0.00015559,-0.00054854,-0.
 00003748,0.00100071,0.00014749,0.00039232,-0.00000273,-0.00000588,0.00
 000021,-0.00000003,0.00001950,-0.00000787,0.13372373,-0.00012036,-0.00
 000786,0.00020824,0.00090160,0.00022093,-0.00007352,0.00009127,0.00002
 427,-0.00000473,0.00352341,-0.00255086,0.00016936,0.00027141,-0.000114
 66,-0.00015198,-0.00117139,-0.00014173,-0.00042634,0.00006308,-0.00016
 327,-0.00004237,0.00119999,0.00163499,-0.00157597,-0.00006475,-0.00001
 236,0.00000409,-0.01513399,-0.01926565,-0.00602902,-0.00001370,-0.0000
 7488,0.00001832,-0.00023054,0.00001914,-0.00002865,-0.00003981,0.00013
 388,-0.00001027,-0.00025866,0.00001930,-0.00003258,0.00002789,0.000266
 67,0.00016126,-0.00131949,0.00102571,-0.00001857,-0.00010005,-0.000066
 42,-0.00002051,0.00003463,-0.00004705,-0.00000047,0.00026009,0.0003691
 9,0.00007665,-0.00003675,-0.00003769,0.00003448,0.00012816,-0.00003359
 ,-0.00001223,0.00003749,0.00019992,0.00003567,0.00140821,0.00402218,0.
 00011414,-0.11731908,-0.25953462,-0.04535807,-0.00000814,0.00000100,-0
 .00000076,-0.00001673,0.00000914,-0.00004733,0.00001009,0.00001401,-0.
 00000229,0.00003964,-0.00001539,-0.00000400,0.00000379,-0.00000936,-0.
 00000484,-0.00000694,-0.00000621,0.00000456,-0.00000506,-0.00001912,0.
 00000280,0.00111840,0.00021613,0.00040272,-0.00021357,0.00084308,0.001
 18472,-0.00000622,-0.00000693,-0.00000235,0.00002851,-0.00002912,0.000
 01153,0.12668385,0.27337640,0.00014185,0.00036428,-0.00076687,-0.00119
 441,0.00039213,-0.00019372,-0.00003784,-0.00015669,0.00003851,0.001963
 35,-0.00068068,0.00425053,0.00018170,-0.00014310,-0.00004075,-0.000513
 28,-0.00014283,0.00018150,-0.00020746,0.00055782,0.00026528,-0.0014674
 1,-0.00129623,0.00878558,0.00033166,0.00006281,-0.00000357,0.00084764,
 -0.00724091,0.00131641,-0.00038150,-0.00000026,0.00000014,0.00004293,0
 .00071969,0.00009002,-0.00005104,-0.00036983,0.00004917,0.00099962,-0.
 00011522,0.00031777,-0.00039557,-0.00067660,-0.00069190,-0.00139890,0.
 00164109,-0.00235374,0.00040346,0.00022646,0.00002729,-0.00015660,0.00
 010674,0.00000508,0.00021484,-0.00101731,-0.00045227,0.00018446,0.0000
 3836,-0.00005998,-0.00028694,0.00018530,0.00002105,0.00002435,-0.00051
 793,0.00004792,0.00289931,-0.00080865,0.00336068,-0.03133945,-0.043517
 65,-0.04483058,0.00000230,0.00000027,-0.00000293,0.00000337,-0.0000030
 1,0.00017685,-0.00002444,-0.00005162,-0.00003988,-0.00002019,-0.000029
 39,0.00012179,0.00000636,0.00000054,-0.00000383,-0.00000880,-0.0000008
 6,-0.00000682,-0.00000245,-0.00000625,0.00000377,0.00016468,0.00003565
 ,0.00045802,0.00019481,0.00088712,-0.00513887,-0.00000056,-0.00000490,
 0.00001033,0.00000569,-0.00001441,-0.00000649,0.02865320,0.05133343,0.
 03504789,-0.00003845,0.00046298,0.00114465,-0.01339735,-0.00138729,0.0
 3395107,0.00185722,-0.00114915,0.00067616,-0.06176226,-0.01431751,0.00
 602133,-0.00122260,-0.00017858,0.00575027,-0.00331175,0.01885819,-0.03
 922235,-0.00060362,0.00030381,-0.00146147,-0.00050174,0.00024696,0.000
 26356,0.00003840,-0.00107832,-0.00035178,0.00092106,0.00420800,-0.0174
 8284,-0.00259059,-0.00018548,-0.00075448,-0.00052544,0.00378629,-0.000
 48059,0.00000207,0.00015410,-0.00005463,-0.00082677,-0.00037242,-0.001
 17620,-0.00021669,0.00027406,0.00007595,-0.00474972,-0.00462407,-0.002
 06562,-0.00009209,0.00161333,0.00082909,-0.00088622,-0.00017814,0.0000
 8953,0.00300019,-0.00349091,-0.00130318,0.00045445,0.00033823,-0.00047
 843,0.00033281,-0.00025321,-0.00005074,0.00109011,-0.00042311,-0.00054
 805,-0.00064472,0.00090380,0.00036228,-0.00142238,-0.00008538,-0.00003
 438,-0.00002854,0.00003001,0.00011606,-0.00004652,0.00005106,0.0000737
 8,-0.00000888,-0.00000955,0.00019275,0.00010910,0.00023814,-0.00020126
 ,0.00010549,-0.00005462,0.00008547,-0.00004483,-0.00001826,0.00002130,
 -0.00004341,-0.00014911,-0.00003661,-0.00065036,-0.00001151,0.00159741
 ,0.00002452,-0.00001718,0.00000720,-0.00003191,0.00000605,0.00009561,0
 .00003529,-0.00006703,-0.00006871,-0.00001880,-0.00000821,0.00038220,0
 .30717944,-0.00434219,0.00066924,0.00035713,0.00538279,-0.00146312,0.0
 0193380,-0.00246102,0.00226641,0.00059204,-0.01343840,-0.04601278,-0.0
 1198189,0.00246261,-0.00134875,-0.00269482,0.01785434,-0.03869002,0.07
 690131,0.00123794,-0.00000558,-0.00058974,0.00098442,-0.00088626,-0.00
 055769,-0.00004535,0.00069672,0.00037272,-0.00574278,-0.00711859,-0.02
 807787,0.00258939,0.00021672,0.00109115,0.00171878,-0.00405420,-0.0050
 2694,0.00006173,-0.00006899,0.00016930,-0.00031229,-0.00100511,-0.0000
 9939,-0.00085512,0.00074017,0.00024403,0.00366492,0.00154780,-0.000327
 40,0.00056905,-0.00186788,-0.00126141,0.00091158,0.00043860,-0.0001164
 9,-0.00372997,0.00478817,-0.00136509,-0.00013125,-0.00045732,0.0004715
 9,-0.00050052,0.00030508,0.00001338,-0.00170686,-0.00088103,0.00106021
 ,0.00067299,-0.00252779,0.00036828,0.00057923,-0.00130878,0.00076231,0
 .00005421,-0.00007604,-0.00003429,-0.00000848,-0.00005921,-0.00015735,
 0.00007687,-0.00002060,-0.00001073,-0.00048170,-0.00055363,0.00082940,
 -0.00008686,0.00015816,-0.00019007,0.00010447,0.00001232,-0.00003799,0
 .00005106,0.00020237,0.00001146,-0.00027271,-0.00072800,0.00134812,0.0
 0007167,0.00006872,-0.00028222,0.00006255,0.00002482,-0.00010393,-0.00
 025270,0.00021999,0.00023511,0.00004972,-0.00039927,-0.00000524,-0.209
 09634,0.62089355,-0.00611828,-0.00542950,0.00035503,0.03264620,0.00158
 526,-0.01314536,-0.00188352,0.00321687,0.00118423,-0.00641783,0.010546
 67,-0.06273677,0.00217272,0.00038335,-0.00507892,-0.03080644,0.0635166
 4,-0.04395284,0.00204840,-0.00100319,-0.00064617,-0.00351082,0.0045168
 9,0.00152061,-0.00033663,0.00018310,0.00029718,-0.02005521,-0.02502736
 ,-0.02110413,0.00247676,-0.00013251,0.00030303,-0.00094113,-0.00516958
 ,-0.00605758,-0.00062425,0.00022196,0.00003932,-0.00108891,0.00004482,
 -0.00084245,-0.00132097,0.00123432,0.00015056,0.01281463,-0.00020757,0
 .00140590,-0.00034205,-0.00254434,0.00013558,0.00042883,-0.00016376,-0
 .00010065,-0.00388784,0.00833952,0.00148777,-0.00025403,-0.00012566,0.
 00024284,0.00025159,0.00023905,-0.00012028,-0.00111500,0.00137530,-0.0
 0020520,-0.00173788,-0.00305854,0.00005967,0.00226015,0.00214207,-0.00
 005985,-0.00021039,-0.00007180,0.00008839,-0.00043733,0.00020480,0.000
 07731,-0.00016044,-0.00001518,0.00023002,0.00028235,-0.00014345,0.0005
 9364,-0.00006222,-0.00018000,0.00009161,-0.00008403,-0.00016464,0.0000
 5739,0.00006167,-0.00010749,0.00004439,0.00087411,0.00007352,0.0002592
 3,-0.00029612,0.00036862,0.00024233,-0.00011832,-0.00015634,0.00003499
 ,0.00025807,-0.00016892,0.00033211,-0.00024319,0.00095389,0.00032197,0
 .13933309,-0.33354686,0.80302044,-0.00031439,-0.00119520,-0.00027398,0
 .00463658,-0.00159938,-0.00349594,-0.00044906,0.00062029,0.00084555,0.
 00830681,0.04309573,0.03589966,0.00214857,-0.00535131,0.01455087,-0.05
 565626,0.00257745,0.00523968,0.00014671,0.00010323,0.00000802,-0.00071
 823,0.00131222,0.00008644,0.00058224,0.00047540,-0.00071542,-0.0061568
 0,-0.00188632,0.00555665,-0.00033856,0.00092117,0.00082389,-0.00248695
 ,-0.00193674,-0.03131722,-0.00008075,0.00006705,0.00004271,0.00016614,
 0.00013817,0.00003771,-0.00023579,-0.00006605,0.00004361,0.00368574,0.
 00351574,-0.00085113,0.00054992,-0.00054026,-0.00014726,0.00038427,-0.
 00039254,0.00012773,-0.00395319,0.00505974,-0.00063574,-0.00061961,-0.
 00044072,-0.00045323,0.00002005,0.00015794,0.00000118,-0.00076646,-0.0
 0190460,-0.00088696,-0.00080276,-0.00191937,-0.00019123,0.00310524,0.0
 0013631,0.00080890,-0.00000245,-0.00000138,-0.00001059,-0.00000856,0.0
 0000365,-0.00001239,0.00001706,0.00001910,-0.00001313,-0.00050743,-0.0
 0049211,0.00228471,0.00004261,0.00005126,-0.00004718,0.00000671,-0.000
 00202,0.00004314,-0.00001417,-0.00003432,-0.00004944,0.00041499,-0.000
 11838,-0.00069655,-0.00002965,0.00005185,-0.00007170,0.00000893,-0.000
 00266,0.00005800,-0.00006769,0.00006585,0.00054720,-0.00017525,0.00029
 404,-0.00012330,-0.10123877,0.08751288,0.03185247,0.15035763,0.0036502
 3,0.00055637,0.00109061,-0.00768801,-0.00250705,-0.00453319,0.00441196
 ,-0.00284005,-0.00034100,0.04344185,-0.03579394,-0.05327096,-0.0087654
 6,-0.00727926,0.03121490,0.00056165,-0.05337895,-0.00922708,-0.0011450
 0,0.00022183,0.00080020,0.00196686,0.00068463,-0.00057550,0.00027933,-
 0.00166589,-0.00149466,0.00591588,0.00712589,0.00206796,-0.00443820,0.
 00043167,0.00041872,0.00290640,0.00792659,0.00668347,0.00014914,0.0000
 5099,-0.00012086,0.00052908,0.00018361,0.00036459,0.00076481,-0.000563
 91,-0.00020491,-0.00653986,-0.00087801,0.00019851,-0.00035646,0.002915
 80,0.00140525,-0.00133726,-0.00055618,0.00021627,0.00350353,-0.0063640
 5,-0.00142960,-0.00008836,0.00050425,-0.00144900,0.00059312,-0.0004002
 1,-0.00004960,0.00126973,-0.00077621,-0.00023086,-0.00023541,0.0024363
 0,0.00012109,-0.00157902,-0.00025912,-0.00061502,-0.00002119,0.0000873
 2,-0.00001975,0.00022848,0.00000321,0.00012416,-0.00004165,0.00001363,
 -0.00008148,0.00025578,0.00034908,-0.00058774,0.00016735,-0.00006500,0
 .00009657,-0.00005604,0.00001230,0.00007727,-0.00004698,-0.00022622,-0
 .00004867,-0.00034583,0.00017930,0.00044939,-0.00000532,-0.00012126,0.
 00015997,-0.00002939,0.00004055,0.00024049,0.00010090,0.00002763,-0.00
 037891,0.00007960,-0.00008485,0.00006242,0.08884987,-0.20351411,-0.050
 13156,-0.15461618,0.33441111,-0.00034747,-0.00059109,-0.00030886,-0.00
 127546,-0.00431816,-0.00371557,-0.00471785,0.00012086,0.00005859,0.032
 09648,-0.04558124,-0.04946673,0.01301618,0.02101923,-0.02238458,0.0170
 2920,-0.03281007,-0.06356861,0.00057284,0.00005615,0.00003296,0.001111
 41,-0.00077487,-0.00040597,0.00069533,0.00242584,0.00072693,0.00390137
 ,-0.00037426,-0.00225781,0.00417370,-0.00152731,0.00072329,-0.02048868
 ,-0.00062348,-0.02949351,-0.00000511,-0.00034842,0.00012910,-0.0001533
 4,-0.00037171,0.00037026,0.00003982,0.00019052,0.00003391,0.00167092,0
 .00048285,-0.00005883,-0.00087553,0.00043684,-0.00089748,0.00083234,-0
 .00029914,-0.00010407,-0.00090792,0.00556045,0.00058385,0.00003167,0.0
 0022096,0.00086756,-0.00054589,0.00049020,0.00011600,-0.00078553,-0.00
 258896,0.00021949,0.00003324,-0.00071996,-0.00026830,0.00077622,-0.001
 11612,-0.00024202,0.00007368,-0.00000908,-0.00005113,0.00016477,-0.000
 06900,-0.00009207,0.00008402,0.00004328,-0.00007402,-0.00066462,-0.000
 24654,0.00156056,-0.00003271,0.00010333,-0.00019988,0.00003001,0.00005
 805,-0.00009401,0.00001153,0.00019783,-0.00004247,-0.00011677,-0.00025
 622,-0.00008329,0.00008296,-0.00003047,-0.00016787,0.00005086,0.000034
 94,-0.00016086,-0.00033217,0.00021020,0.00048286,0.00010424,-0.0004637
 1,-0.00010980,0.02220863,-0.03244883,-0.09571414,-0.03963346,0.0438452
 2,0.25604537,0.00024544,0.00026187,-0.00036545,0.00080230,0.00067168,-
 0.00218533,-0.00076068,0.00033201,-0.00002588,0.01164034,0.00285196,-0
 .00401765,0.00009772,-0.00006048,-0.00248648,0.00363369,0.00338387,0.0
 0597811,0.00005706,0.00008526,0.00017384,0.00021801,-0.00087701,-0.000
 41266,0.00003976,0.00037786,0.00010155,0.00135892,0.00005609,0.0021089
 4,0.00080630,0.00009904,-0.00002838,0.00037765,-0.00111381,0.00022481,
 0.00007315,-0.00011540,0.00004521,0.00046744,0.00014450,0.00018915,0.0
 0014484,-0.00022314,0.00001512,0.00040959,0.00126558,0.00008382,0.0001
 4577,-0.00042125,-0.00016723,0.00028272,0.00014411,-0.00002573,-0.0008
 5556,0.00011989,0.00011160,-0.00005757,-0.00008255,0.00018288,-0.00020
 369,0.00011118,0.00003809,-0.00016243,0.00003725,0.00013621,0.00048864
 ,-0.00030582,-0.00003025,-0.00015027,0.00026007,0.00000756,0.00002698,
 -0.00000817,-0.00003806,0.00001335,-0.00003542,-0.00004747,0.00002178,
 -0.00000259,-0.00005576,-0.00004246,-0.00008440,0.00012248,-0.00003782
 ,0.00003050,-0.00002764,0.00002512,0.00001373,-0.00001842,0.00001649,0
 .00007118,0.00002290,0.00006453,-0.00002194,-0.00016960,0.00002908,-0.
 00001163,-0.00005688,0.00001879,0.00000630,-0.00004255,-0.00000961,-0.
 00000033,-0.00000041,0.00002853,-0.00005210,-0.00003762,-0.12024575,0.
 11679131,-0.14570820,0.00004257,0.02771006,-0.02790889,0.10094927,0.00
 031966,-0.00085298,0.00027271,0.00193673,0.00065929,-0.00163500,0.0005
 9869,-0.00047125,-0.00013598,0.00359273,0.00628692,0.01410183,-0.00073
 245,0.00066652,0.00123275,0.00446263,0.00027975,-0.01003154,-0.0000146
 1,-0.00026878,0.00001912,-0.00023048,0.00076628,0.00048376,-0.00013346
 ,-0.00032259,-0.00014872,-0.00006536,-0.00109760,0.00151380,-0.0004231
 4,-0.00019478,0.00004128,-0.00119292,0.00064445,0.00277472,-0.00007665
 ,0.00018483,-0.00003973,-0.00043129,0.00006759,-0.00004599,0.00012471,
 0.00023131,-0.00003882,0.00026772,-0.00071928,0.00030296,-0.00066781,0
 .00032838,0.00017399,-0.00026303,-0.00024669,0.00003779,0.00133530,-0.
 00060751,0.00029338,-0.00014256,0.00011935,-0.00014341,0.00034459,-0.0
 0015645,-0.00002140,0.00042755,0.00093533,0.00001178,-0.00106334,0.000
 62790,-0.00020494,0.00008462,0.00047943,-0.00041614,-0.00005020,0.0000
 1738,0.00002574,-0.00005884,0.00005715,0.00006037,-0.00004838,0.000007
 34,0.00003670,0.00021738,0.00021041,-0.00032620,0.00002780,-0.00009382
 ,0.00004529,-0.00004364,-0.00002929,0.00002078,-0.00000412,-0.00009292
 ,-0.00000112,0.00013588,0.00021785,-0.00012048,-0.00008186,0.00004875,
 0.00012853,-0.00003640,-0.00002516,0.00004343,0.00014721,-0.00009688,-
 0.00007030,-0.00000439,0.00022495,0.00018542,0.11683051,-0.32020178,0.
 32840161,0.02632049,-0.04088778,0.05007190,-0.15140927,0.35330441,0.00
 168368,0.00147480,-0.00020660,-0.00832953,-0.00012544,0.00186341,0.000
 12496,-0.00047159,-0.00024307,-0.00515121,0.01495176,-0.03728114,-0.00
 111481,-0.00025871,0.00062152,0.00056565,-0.00208234,0.00173296,-0.000
 35223,0.00032329,0.00018683,0.00081651,-0.00111861,-0.00019804,0.00021
 084,0.00004666,-0.00000110,0.00577510,0.00671800,0.00240120,-0.0007022
 4,0.00026108,-0.00066919,0.00134889,0.00218360,0.00057514,0.00024997,-
 0.00026934,0.00004956,0.00066085,0.00020135,0.00029274,0.00049887,-0.0
 0054045,-0.00002128,-0.00442799,0.00039857,-0.00023881,0.00067207,0.00
 080141,0.00007358,-0.00012048,0.00031216,0.00002956,0.00060205,-0.0028
 7266,-0.00045092,0.00033375,0.00008648,-0.00002726,-0.00033617,0.00003
 046,0.00006608,0.00021767,-0.00115139,-0.00050242,0.00084441,0.0008871
 0,0.00007776,-0.00152922,0.00013664,-0.00005616,0.00012194,0.00000821,
 -0.00006608,0.00018322,-0.00012791,-0.00007531,0.00010544,0.00001061,-
 0.00010453,-0.00025724,-0.00008474,-0.00003714,-0.00000815,0.00014990,
 -0.00001532,0.00006573,0.00009736,-0.00004483,-0.00002025,0.00014022,-
 0.00001054,-0.00035700,-0.00016703,0.00001183,0.00017479,-0.00018389,-
 0.00012338,0.00008041,0.00008539,-0.00005059,-0.00024129,0.00014597,-0
 .00008355,0.00003508,-0.00040528,-0.00019554,-0.14750605,0.33215491,-0
 .56281119,-0.01923228,0.03515332,0.00801113,0.17431427,-0.38689988,0.5
 8752068\\0.00000546,0.00000443,0.00002149,0.00001660,0.00004482,-0.000
 03987,0.00001124,-0.00001495,-0.00000558,0.00004338,-0.00000034,-0.000
 10947,-0.00000116,-0.00002769,0.00002529,-0.00005660,0.00003265,0.0000
 2554,0.00000233,-0.00000730,0.00000054,-0.00002343,-0.00002648,0.00001
 065,-0.00001467,0.00000296,0.00000209,-0.00002325,0.00000390,0.0000158
 6,0.00000908,0.00000592,-0.00000174,-0.00000247,-0.00004198,-0.0000158
 1,-0.00000311,0.00001002,0.00000135,-0.00000520,-0.00000051,0.00000575
 ,-0.00000110,0.00001085,0.00000260,0.00000876,0.00000442,-0.00000176,-
 0.00000558,-0.00002096,0.00000013,0.00000171,-0.00000207,-0.00000056,-
 0.00000342,0.00001202,0.00000015,-0.00000526,0.00000001,0.00000166,0.0
 0000664,-0.00000460,0.00000168,0.00000044,0.00001763,-0.00000358,-0.00
 001058,0.00000799,0.00000038,0.00002202,-0.00000147,-0.00000072,-0.000
 00044,0.00000259,0.00000179,0.00000537,0.00000361,0.00000091,0.0000006
 5,0.00000049,0.00000112,0.00000106,-0.00000289,0.00000470,-0.00000186,
 -0.00000108,-0.00000334,-0.00000167,0.00000176,0.00000010,-0.00000112,
 -0.00000035,-0.00000172,0.00000206,-0.00000236,-0.00000043,0.00000387,
 0.00000202,-0.00000148,-0.00000228,0.00000075,-0.00000054,-0.00000049,
 -0.00000110,-0.00000002,0.00000205,-0.00000006,0.00000070,0.00003214,-
 0.00000038,-0.00000686,-0.00001233,0.00001178,-0.00003766,0.00000115,-
 0.00002401,0.00010666\\\@


 CHILDREN YOU ARE VERY LITTLE,
 AND YOUR BONES ARE VERY BRITTLE;
 IF YOU WOULD GROW GREAT AND STATELY
 YOU MUST TRY TO WALK SEDATELY.
 YOU MUST STILL BE BRIGHT AND QUIET,
 AND CONTENT WITH SIMPLE DIET;
 AND REMAIN, THROUGH ALL BEWILD'RING
 INNOCENT AND HONEST CHILDREN.
     -- A CHILD'S GARDEN OF VERSE,
        ROBERT LOUIS STEVENSON
 Job cpu time:  0 days  7 hours 32 minutes 23.7 seconds.
 File lengths (MBytes):  RWF=    848 Int=      0 D2E=      0 Chk=     14 Scr=      1
 Normal termination of Gaussian 09 at Thu Jun 12 16:53:35 2025.
