 Entering Gaussian System, Link 0=g09
 Input=Wac1.gjf
 Output=Wac1.log
 Initial command:
 /share/apps/g09/l1.exe /scratch/Gau-21531.inp -scrdir=/scratch/
 Entering Link 1 = /share/apps/g09/l1.exe PID=     21532.
  
 Copyright (c) 1988,1990,1992,1993,1995,1998,2003,2009,2010,
            Gaussian, Inc.  All Rights Reserved.
  
 This is part of the Gaussian(R) 09 program.  It is based on
 the Gaussian(R) 03 system (copyright 2003, Gaussian, Inc.),
 the Gaussian(R) 98 system (copyright 1998, Gaussian, Inc.),
 the Gaussian(R) 94 system (copyright 1995, Gaussian, Inc.),
 the Gaussian 92(TM) system (copyright 1992, Gaussian, Inc.),
 the Gaussian 90(TM) system (copyright 1990, Gaussian, Inc.),
 the Gaussian 88(TM) system (copyright 1988, Gaussian, Inc.),
 the Gaussian 86(TM) system (copyright 1986, Carnegie Mellon
 University), and the Gaussian 82(TM) system (copyright 1983,
 Carnegie Mellon University). Gaussian is a federally registered
 trademark of Gaussian, Inc.
  
 This software contains proprietary and confidential information,
 including trade secrets, belonging to Gaussian, Inc.
  
 This software is provided under written license and may be
 used, copied, transmitted, or stored only in accord with that
 written license.
  
 The following legend is applicable only to US Government
 contracts under FAR:
  
                    RESTRICTED RIGHTS LEGEND
  
 Use, reproduction and disclosure by the US Government is
 subject to restrictions as set forth in subparagraphs (a)
 and (c) of the Commercial Computer Software - Restricted
 Rights clause in FAR 52.227-19.
  
 Gaussian, Inc.
 340 Quinnipiac St., Bldg. 40, Wallingford CT 06492
  
  
 ---------------------------------------------------------------
 Warning -- This program may not be used in any manner that
 competes with the business of Gaussian, Inc. or will provide
 assistance to any competitor of Gaussian, Inc.  The licensee
 of this program is prohibited from giving any competitor of
 Gaussian, Inc. access to this program.  By using this program,
 the user acknowledges that Gaussian, Inc. is engaged in the
 business of creating and licensing software in the field of
 computational chemistry and represents and warrants to the
 licensee that it is not a competitor of Gaussian, Inc. and that
 it will not use this program in any manner prohibited above.
 ---------------------------------------------------------------
  

 Cite this work as:
 Gaussian 09, Revision B.01,
 M. J. Frisch, G. W. Trucks, H. B. Schlegel, G. E. Scuseria, 
 M. A. Robb, J. R. Cheeseman, G. Scalmani, V. Barone, B. Mennucci, 
 G. A. Petersson, H. Nakatsuji, M. Caricato, X. Li, H. P. Hratchian, 
 A. F. Izmaylov, J. Bloino, G. Zheng, J. L. Sonnenberg, M. Hada, 
 M. Ehara, K. Toyota, R. Fukuda, J. Hasegawa, M. Ishida, T. Nakajima, 
 Y. Honda, O. Kitao, H. Nakai, T. Vreven, J. A. Montgomery, Jr., 
 J. E. Peralta, F. Ogliaro, M. Bearpark, J. J. Heyd, E. Brothers, 
 K. N. Kudin, V. N. Staroverov, T. Keith, R. Kobayashi, J. Normand, 
 K. Raghavachari, A. Rendell, J. C. Burant, S. S. Iyengar, J. Tomasi, 
 M. Cossi, N. Rega, J. M. Millam, M. Klene, J. E. Knox, J. B. Cross, 
 V. Bakken, C. Adamo, J. Jaramillo, R. Gomperts, R. E. Stratmann, 
 O. Yazyev, A. J. Austin, R. Cammi, C. Pomelli, J. W. Ochterski, 
 R. L. Martin, K. Morokuma, V. G. Zakrzewski, G. A. Voth, 
 P. Salvador, J. J. Dannenberg, S. Dapprich, A. D. Daniels, 
 O. Farkas, J. B. Foresman, J. V. Ortiz, J. Cioslowski, 
 and D. J. Fox, Gaussian, Inc., Wallingford CT, 2010.
 
 ******************************************
 Gaussian 09:  AM64L-G09RevB.01 12-Aug-2010
                10-Jun-2025 
 ******************************************
 %nprocshared=8
 Will use up to    8 processors via shared memory.
 %mem=10GB
 ---------------------------------------------------
 # opt freq b3lyp/6-31g(d) geom=connectivity scf=xqc
 ---------------------------------------------------
 1/14=-1,18=20,19=15,26=3,38=1,57=2/1,3;
 2/9=110,12=2,17=6,18=5,40=1/2;
 3/5=1,6=6,7=1,11=2,16=1,25=1,30=1,71=1,74=-5/1,2,3;
 4//1;
 5/5=2,8=3,13=1,38=5/2,8;
 6/7=2,8=2,9=2,10=2,28=1/1;
 7//1,2,3,16;
 1/14=-1,18=20,19=15/3(2);
 2/9=110/2;
 99//99;
 2/9=110/2;
 3/5=1,6=6,7=1,11=2,16=1,25=1,30=1,71=1,74=-5/1,2,3;
 4/5=5,16=3/1;
 5/5=2,8=3,13=1,38=5/2,8;
 7//1,2,3,16;
 1/14=-1,18=20,19=15/3(-5);
 2/9=110/2;
 6/7=2,8=2,9=2,10=2,19=2,28=1/1;
 99/9=1/99;
 -------
 Wac_opt
 -------
 Symbolic Z-matrix:
 Charge =  0 Multiplicity = 1
 C                    -1.4273    0.028     0. 
 C                    -0.6894    1.25      0. 
 C                    -0.7379   -1.222     0. 
 C                     0.7379    1.222     0. 
 C                     0.6894   -1.25      0. 
 C                     1.4273   -0.028     0. 
 C                    -2.8492    0.0558    0. 
 C                    -1.3762    2.4952    0. 
 C                    -1.473    -2.4394    0. 
 C                     1.473     2.4394    0. 
 C                     1.3762   -2.4952    0. 
 C                     2.8492   -0.0558    0. 
 C                    -3.5583   -1.1788    0. 
 C                    -2.8001    2.492     0. 
 C                    -3.5094    1.3173    0. 
 C                     2.8956    2.3803    0. 
 C                     2.8001   -2.492     0. 
 C                    -0.7582   -3.6708    0. 
 C                     3.5583    1.1788    0. 
 C                     0.6138   -3.6977    0. 
 C                    -2.8956   -2.3803    0. 
 C                     3.5094   -1.3173    0. 
 C                    -0.6138    3.6977    0. 
 C                     0.7582    3.6708    0. 
 H                    -4.6455   -1.1548    0. 
 H                    -3.3231    3.4454    0. 
 H                    -4.5967    1.3359    0. 
 H                     4.6455    1.1548    0. 
 H                     3.3231   -3.4454    0. 
 H                    -3.4555   -3.3126    0. 
 H                     1.1413   -4.6486    0. 
 H                     3.4555    3.3126    0. 
 H                    -1.1413    4.6486    0. 
 H                    -1.3226   -4.6003    0. 
 H                     4.5967   -1.3359    0. 
 H                     1.3226    4.6003    0. 
 H                     0.5613    0.2888    1.4023 
 O                    -0.0356   -0.1129    0.7428 
 H                    -0.9305   -0.1615    1.1293 
 

 GradGradGradGradGradGradGradGradGradGradGradGradGradGradGradGradGradGrad
 Berny optimization.
 Initialization pass.
                           ----------------------------
                           !    Initial Parameters    !
                           ! (Angstroms and Degrees)  !
 --------------------------                            --------------------------
 ! Name  Definition              Value          Derivative Info.                !
 --------------------------------------------------------------------------------
 ! R1    R(1,2)                  1.4275         estimate D2E/DX2                !
 ! R2    R(1,3)                  1.4275         estimate D2E/DX2                !
 ! R3    R(1,7)                  1.4222         estimate D2E/DX2                !
 ! R4    R(1,38)                 1.5838         estimate D2E/DX2                !
 ! R5    R(1,39)                 1.2482         estimate D2E/DX2                !
 ! R6    R(2,4)                  1.4276         estimate D2E/DX2                !
 ! R7    R(2,8)                  1.422          estimate D2E/DX2                !
 ! R8    R(2,38)                 1.6843         estimate D2E/DX2                !
 ! R9    R(3,5)                  1.4276         estimate D2E/DX2                !
 ! R10   R(3,9)                  1.4221         estimate D2E/DX2                !
 ! R11   R(3,38)                 1.5083         estimate D2E/DX2                !
 ! R12   R(4,6)                  1.4275         estimate D2E/DX2                !
 ! R13   R(4,10)                 1.4221         estimate D2E/DX2                !
 ! R14   R(4,38)                 1.7123         estimate D2E/DX2                !
 ! R15   R(5,6)                  1.4275         estimate D2E/DX2                !
 ! R16   R(5,11)                 1.422          estimate D2E/DX2                !
 ! R17   R(5,38)                 1.5396         estimate D2E/DX2                !
 ! R18   R(6,12)                 1.4222         estimate D2E/DX2                !
 ! R19   R(6,38)                 1.6429         estimate D2E/DX2                !
 ! R20   R(7,13)                 1.4237         estimate D2E/DX2                !
 ! R21   R(7,15)                 1.4238         estimate D2E/DX2                !
 ! R22   R(8,14)                 1.4239         estimate D2E/DX2                !
 ! R23   R(8,23)                 1.4238         estimate D2E/DX2                !
 ! R24   R(9,18)                 1.4238         estimate D2E/DX2                !
 ! R25   R(9,21)                 1.4238         estimate D2E/DX2                !
 ! R26   R(10,16)                1.4238         estimate D2E/DX2                !
 ! R27   R(10,24)                1.4238         estimate D2E/DX2                !
 ! R28   R(11,17)                1.4239         estimate D2E/DX2                !
 ! R29   R(11,20)                1.4238         estimate D2E/DX2                !
 ! R30   R(12,19)                1.4237         estimate D2E/DX2                !
 ! R31   R(12,22)                1.4238         estimate D2E/DX2                !
 ! R32   R(13,21)                1.3721         estimate D2E/DX2                !
 ! R33   R(13,25)                1.0875         estimate D2E/DX2                !
 ! R34   R(14,15)                1.3722         estimate D2E/DX2                !
 ! R35   R(14,26)                1.0874         estimate D2E/DX2                !
 ! R36   R(15,27)                1.0875         estimate D2E/DX2                !
 ! R37   R(16,19)                1.3721         estimate D2E/DX2                !
 ! R38   R(16,32)                1.0875         estimate D2E/DX2                !
 ! R39   R(17,22)                1.3722         estimate D2E/DX2                !
 ! R40   R(17,29)                1.0874         estimate D2E/DX2                !
 ! R41   R(18,20)                1.3723         estimate D2E/DX2                !
 ! R42   R(18,34)                1.0874         estimate D2E/DX2                !
 ! R43   R(19,28)                1.0875         estimate D2E/DX2                !
 ! R44   R(20,31)                1.0874         estimate D2E/DX2                !
 ! R45   R(21,30)                1.0875         estimate D2E/DX2                !
 ! R46   R(22,35)                1.0875         estimate D2E/DX2                !
 ! R47   R(23,24)                1.3723         estimate D2E/DX2                !
 ! R48   R(23,33)                1.0874         estimate D2E/DX2                !
 ! R49   R(24,36)                1.0874         estimate D2E/DX2                !
 ! R50   R(37,38)                0.976          estimate D2E/DX2                !
 ! R51   R(38,39)                0.976          estimate D2E/DX2                !
 ! A1    A(2,1,3)              119.9969         estimate D2E/DX2                !
 ! A2    A(2,1,7)              120.0055         estimate D2E/DX2                !
 ! A3    A(2,1,39)              85.6542         estimate D2E/DX2                !
 ! A4    A(3,1,7)              119.9977         estimate D2E/DX2                !
 ! A5    A(3,1,39)              71.0251         estimate D2E/DX2                !
 ! A6    A(7,1,38)             151.676          estimate D2E/DX2                !
 ! A7    A(7,1,39)             113.6345         estimate D2E/DX2                !
 ! A8    A(1,2,4)              120.0017         estimate D2E/DX2                !
 ! A9    A(1,2,8)              119.9952         estimate D2E/DX2                !
 ! A10   A(4,2,8)              120.0031         estimate D2E/DX2                !
 ! A11   A(8,2,38)             153.6435         estimate D2E/DX2                !
 ! A12   A(1,3,5)              120.0015         estimate D2E/DX2                !
 ! A13   A(1,3,9)              119.9976         estimate D2E/DX2                !
 ! A14   A(5,3,9)              120.0009         estimate D2E/DX2                !
 ! A15   A(9,3,38)             150.4745         estimate D2E/DX2                !
 ! A16   A(2,4,6)              120.0015         estimate D2E/DX2                !
 ! A17   A(2,4,10)             120.0009         estimate D2E/DX2                !
 ! A18   A(6,4,10)             119.9976         estimate D2E/DX2                !
 ! A19   A(10,4,38)            154.2717         estimate D2E/DX2                !
 ! A20   A(3,5,6)              120.0017         estimate D2E/DX2                !
 ! A21   A(3,5,11)             120.0031         estimate D2E/DX2                !
 ! A22   A(6,5,11)             119.9952         estimate D2E/DX2                !
 ! A23   A(11,5,38)            150.9443         estimate D2E/DX2                !
 ! A24   A(4,6,5)              119.9969         estimate D2E/DX2                !
 ! A25   A(4,6,12)             119.9977         estimate D2E/DX2                !
 ! A26   A(5,6,12)             120.0055         estimate D2E/DX2                !
 ! A27   A(12,6,38)            152.7818         estimate D2E/DX2                !
 ! A28   A(1,7,13)             118.7511         estimate D2E/DX2                !
 ! A29   A(1,7,15)             118.7452         estimate D2E/DX2                !
 ! A30   A(13,7,15)            122.5037         estimate D2E/DX2                !
 ! A31   A(2,8,14)             118.7505         estimate D2E/DX2                !
 ! A32   A(2,8,23)             118.7455         estimate D2E/DX2                !
 ! A33   A(14,8,23)            122.504          estimate D2E/DX2                !
 ! A34   A(3,9,18)             118.7411         estimate D2E/DX2                !
 ! A35   A(3,9,21)             118.7458         estimate D2E/DX2                !
 ! A36   A(18,9,21)            122.5131         estimate D2E/DX2                !
 ! A37   A(4,10,16)            118.7458         estimate D2E/DX2                !
 ! A38   A(4,10,24)            118.7411         estimate D2E/DX2                !
 ! A39   A(16,10,24)           122.5131         estimate D2E/DX2                !
 ! A40   A(5,11,17)            118.7505         estimate D2E/DX2                !
 ! A41   A(5,11,20)            118.7455         estimate D2E/DX2                !
 ! A42   A(17,11,20)           122.504          estimate D2E/DX2                !
 ! A43   A(6,12,19)            118.7511         estimate D2E/DX2                !
 ! A44   A(6,12,22)            118.7452         estimate D2E/DX2                !
 ! A45   A(19,12,22)           122.5037         estimate D2E/DX2                !
 ! A46   A(7,13,21)            121.2494         estimate D2E/DX2                !
 ! A47   A(7,13,25)            118.6066         estimate D2E/DX2                !
 ! A48   A(21,13,25)           120.144          estimate D2E/DX2                !
 ! A49   A(8,14,15)            121.2529         estimate D2E/DX2                !
 ! A50   A(8,14,26)            118.6188         estimate D2E/DX2                !
 ! A51   A(15,14,26)           120.1283         estimate D2E/DX2                !
 ! A52   A(7,15,14)            121.2507         estimate D2E/DX2                !
 ! A53   A(7,15,27)            118.6051         estimate D2E/DX2                !
 ! A54   A(14,15,27)           120.1441         estimate D2E/DX2                !
 ! A55   A(10,16,19)           121.2583         estimate D2E/DX2                !
 ! A56   A(10,16,32)           118.6083         estimate D2E/DX2                !
 ! A57   A(19,16,32)           120.1334         estimate D2E/DX2                !
 ! A58   A(11,17,22)           121.2529         estimate D2E/DX2                !
 ! A59   A(11,17,29)           118.6188         estimate D2E/DX2                !
 ! A60   A(22,17,29)           120.1283         estimate D2E/DX2                !
 ! A61   A(9,18,20)            121.2574         estimate D2E/DX2                !
 ! A62   A(9,18,34)            118.5993         estimate D2E/DX2                !
 ! A63   A(20,18,34)           120.1432         estimate D2E/DX2                !
 ! A64   A(12,19,16)           121.2494         estimate D2E/DX2                !
 ! A65   A(12,19,28)           118.6066         estimate D2E/DX2                !
 ! A66   A(16,19,28)           120.144          estimate D2E/DX2                !
 ! A67   A(11,20,18)           121.252          estimate D2E/DX2                !
 ! A68   A(11,20,31)           118.606          estimate D2E/DX2                !
 ! A69   A(18,20,31)           120.142          estimate D2E/DX2                !
 ! A70   A(9,21,13)            121.2583         estimate D2E/DX2                !
 ! A71   A(9,21,30)            118.6083         estimate D2E/DX2                !
 ! A72   A(13,21,30)           120.1334         estimate D2E/DX2                !
 ! A73   A(12,22,17)           121.2507         estimate D2E/DX2                !
 ! A74   A(12,22,35)           118.6051         estimate D2E/DX2                !
 ! A75   A(17,22,35)           120.1441         estimate D2E/DX2                !
 ! A76   A(8,23,24)            121.252          estimate D2E/DX2                !
 ! A77   A(8,23,33)            118.606          estimate D2E/DX2                !
 ! A78   A(24,23,33)           120.142          estimate D2E/DX2                !
 ! A79   A(10,24,23)           121.2574         estimate D2E/DX2                !
 ! A80   A(10,24,36)           118.5993         estimate D2E/DX2                !
 ! A81   A(23,24,36)           120.1432         estimate D2E/DX2                !
 ! A82   A(1,38,4)              97.1306         estimate D2E/DX2                !
 ! A83   A(1,38,5)             104.6679         estimate D2E/DX2                !
 ! A84   A(1,38,6)             124.4578         estimate D2E/DX2                !
 ! A85   A(1,38,37)            144.8538         estimate D2E/DX2                !
 ! A86   A(2,38,3)             101.3665         estimate D2E/DX2                !
 ! A87   A(2,38,5)             124.5878         estimate D2E/DX2                !
 ! A88   A(2,38,6)              95.9948         estimate D2E/DX2                !
 ! A89   A(2,38,37)            101.6752         estimate D2E/DX2                !
 ! A90   A(2,38,39)             81.8952         estimate D2E/DX2                !
 ! A91   A(3,38,4)             124.7462         estimate D2E/DX2                !
 ! A92   A(3,38,6)             103.2938         estimate D2E/DX2                !
 ! A93   A(3,38,37)            156.9487         estimate D2E/DX2                !
 ! A94   A(3,38,39)             74.4239         estimate D2E/DX2                !
 ! A95   A(4,38,5)              98.8454         estimate D2E/DX2                !
 ! A96   A(4,38,37)             72.302          estimate D2E/DX2                !
 ! A97   A(4,38,39)            128.6671         estimate D2E/DX2                !
 ! A98   A(5,38,37)            109.9982         estimate D2E/DX2                !
 ! A99   A(5,38,39)            125.877          estimate D2E/DX2                !
 ! A100  A(6,38,37)             74.9102         estimate D2E/DX2                !
 ! A101  A(37,38,39)           108.2801         estimate D2E/DX2                !
 ! D1    D(3,1,2,4)              0.0            estimate D2E/DX2                !
 ! D2    D(3,1,2,8)            180.0            estimate D2E/DX2                !
 ! D3    D(7,1,2,4)            180.0            estimate D2E/DX2                !
 ! D4    D(7,1,2,8)              0.0            estimate D2E/DX2                !
 ! D5    D(39,1,2,4)            65.1405         estimate D2E/DX2                !
 ! D6    D(39,1,2,8)          -114.8595         estimate D2E/DX2                !
 ! D7    D(2,1,3,5)              0.0            estimate D2E/DX2                !
 ! D8    D(2,1,3,9)            180.0            estimate D2E/DX2                !
 ! D9    D(7,1,3,5)            180.0            estimate D2E/DX2                !
 ! D10   D(7,1,3,9)              0.0            estimate D2E/DX2                !
 ! D11   D(39,1,3,5)           -73.0814         estimate D2E/DX2                !
 ! D12   D(39,1,3,9)           106.9186         estimate D2E/DX2                !
 ! D13   D(2,1,7,13)           180.0            estimate D2E/DX2                !
 ! D14   D(2,1,7,15)             0.0            estimate D2E/DX2                !
 ! D15   D(3,1,7,13)             0.0            estimate D2E/DX2                !
 ! D16   D(3,1,7,15)           180.0            estimate D2E/DX2                !
 ! D17   D(38,1,7,13)          -81.2997         estimate D2E/DX2                !
 ! D18   D(38,1,7,15)           98.7003         estimate D2E/DX2                !
 ! D19   D(39,1,7,13)          -80.956          estimate D2E/DX2                !
 ! D20   D(39,1,7,15)           99.044          estimate D2E/DX2                !
 ! D21   D(7,1,38,4)          -134.0163         estimate D2E/DX2                !
 ! D22   D(7,1,38,5)           124.8598         estimate D2E/DX2                !
 ! D23   D(7,1,38,6)           179.9921         estimate D2E/DX2                !
 ! D24   D(7,1,38,37)          -64.7796         estimate D2E/DX2                !
 ! D25   D(1,2,4,6)              0.0            estimate D2E/DX2                !
 ! D26   D(1,2,4,10)           180.0            estimate D2E/DX2                !
 ! D27   D(8,2,4,6)            180.0            estimate D2E/DX2                !
 ! D28   D(8,2,4,10)             0.0            estimate D2E/DX2                !
 ! D29   D(1,2,8,14)             0.0            estimate D2E/DX2                !
 ! D30   D(1,2,8,23)           180.0            estimate D2E/DX2                !
 ! D31   D(4,2,8,14)           180.0            estimate D2E/DX2                !
 ! D32   D(4,2,8,23)             0.0            estimate D2E/DX2                !
 ! D33   D(38,2,8,14)          -83.4155         estimate D2E/DX2                !
 ! D34   D(38,2,8,23)           96.5845         estimate D2E/DX2                !
 ! D35   D(8,2,38,3)           123.8429         estimate D2E/DX2                !
 ! D36   D(8,2,38,5)           179.9963         estimate D2E/DX2                !
 ! D37   D(8,2,38,6)          -131.2682         estimate D2E/DX2                !
 ! D38   D(8,2,38,37)          -55.4852         estimate D2E/DX2                !
 ! D39   D(8,2,38,39)           51.618          estimate D2E/DX2                !
 ! D40   D(1,3,5,6)              0.0            estimate D2E/DX2                !
 ! D41   D(1,3,5,11)           180.0            estimate D2E/DX2                !
 ! D42   D(9,3,5,6)            180.0            estimate D2E/DX2                !
 ! D43   D(9,3,5,11)             0.0            estimate D2E/DX2                !
 ! D44   D(1,3,9,18)           180.0            estimate D2E/DX2                !
 ! D45   D(1,3,9,21)             0.0            estimate D2E/DX2                !
 ! D46   D(5,3,9,18)             0.0            estimate D2E/DX2                !
 ! D47   D(5,3,9,21)           180.0            estimate D2E/DX2                !
 ! D48   D(38,3,9,18)          -87.8488         estimate D2E/DX2                !
 ! D49   D(38,3,9,21)           92.1512         estimate D2E/DX2                !
 ! D50   D(9,3,38,2)          -131.5677         estimate D2E/DX2                !
 ! D51   D(9,3,38,4)           179.9984         estimate D2E/DX2                !
 ! D52   D(9,3,38,6)           129.4019         estimate D2E/DX2                !
 ! D53   D(9,3,38,37)           46.7516         estimate D2E/DX2                !
 ! D54   D(9,3,38,39)          -53.4162         estimate D2E/DX2                !
 ! D55   D(2,4,6,5)              0.0            estimate D2E/DX2                !
 ! D56   D(2,4,6,12)           180.0            estimate D2E/DX2                !
 ! D57   D(10,4,6,5)           180.0            estimate D2E/DX2                !
 ! D58   D(10,4,6,12)            0.0            estimate D2E/DX2                !
 ! D59   D(2,4,10,16)          180.0            estimate D2E/DX2                !
 ! D60   D(2,4,10,24)            0.0            estimate D2E/DX2                !
 ! D61   D(6,4,10,16)            0.0            estimate D2E/DX2                !
 ! D62   D(6,4,10,24)          180.0            estimate D2E/DX2                !
 ! D63   D(38,4,10,16)          87.8517         estimate D2E/DX2                !
 ! D64   D(38,4,10,24)         -92.1483         estimate D2E/DX2                !
 ! D65   D(10,4,38,1)          128.1741         estimate D2E/DX2                !
 ! D66   D(10,4,38,3)          179.9982         estimate D2E/DX2                !
 ! D67   D(10,4,38,5)         -125.7012         estimate D2E/DX2                !
 ! D68   D(10,4,38,37)         -17.4223         estimate D2E/DX2                !
 ! D69   D(10,4,38,39)          82.1524         estimate D2E/DX2                !
 ! D70   D(3,5,6,4)              0.0            estimate D2E/DX2                !
 ! D71   D(3,5,6,12)           180.0            estimate D2E/DX2                !
 ! D72   D(11,5,6,4)           180.0            estimate D2E/DX2                !
 ! D73   D(11,5,6,12)            0.0            estimate D2E/DX2                !
 ! D74   D(3,5,11,17)          180.0            estimate D2E/DX2                !
 ! D75   D(3,5,11,20)            0.0            estimate D2E/DX2                !
 ! D76   D(6,5,11,17)            0.0            estimate D2E/DX2                !
 ! D77   D(6,5,11,20)          180.0            estimate D2E/DX2                !
 ! D78   D(38,5,11,17)         -96.5782         estimate D2E/DX2                !
 ! D79   D(38,5,11,20)          83.4218         estimate D2E/DX2                !
 ! D80   D(11,5,38,1)         -126.7234         estimate D2E/DX2                !
 ! D81   D(11,5,38,2)          179.9966         estimate D2E/DX2                !
 ! D82   D(11,5,38,4)          133.4545         estimate D2E/DX2                !
 ! D83   D(11,5,38,37)          59.1643         estimate D2E/DX2                !
 ! D84   D(11,5,38,39)         -73.3028         estimate D2E/DX2                !
 ! D85   D(4,6,12,19)            0.0            estimate D2E/DX2                !
 ! D86   D(4,6,12,22)          180.0            estimate D2E/DX2                !
 ! D87   D(5,6,12,19)          180.0            estimate D2E/DX2                !
 ! D88   D(5,6,12,22)            0.0            estimate D2E/DX2                !
 ! D89   D(38,6,12,19)         -98.6861         estimate D2E/DX2                !
 ! D90   D(38,6,12,22)          81.3139         estimate D2E/DX2                !
 ! D91   D(12,6,38,1)          179.9918         estimate D2E/DX2                !
 ! D92   D(12,6,38,2)          133.1427         estimate D2E/DX2                !
 ! D93   D(12,6,38,3)         -123.6523         estimate D2E/DX2                !
 ! D94   D(12,6,38,37)          32.6315         estimate D2E/DX2                !
 ! D95   D(1,7,13,21)            0.0            estimate D2E/DX2                !
 ! D96   D(1,7,13,25)          180.0            estimate D2E/DX2                !
 ! D97   D(15,7,13,21)         180.0            estimate D2E/DX2                !
 ! D98   D(15,7,13,25)           0.0            estimate D2E/DX2                !
 ! D99   D(1,7,15,14)            0.0            estimate D2E/DX2                !
 ! D100  D(1,7,15,27)          180.0            estimate D2E/DX2                !
 ! D101  D(13,7,15,14)         180.0            estimate D2E/DX2                !
 ! D102  D(13,7,15,27)           0.0            estimate D2E/DX2                !
 ! D103  D(2,8,14,15)            0.0            estimate D2E/DX2                !
 ! D104  D(2,8,14,26)          180.0            estimate D2E/DX2                !
 ! D105  D(23,8,14,15)         180.0            estimate D2E/DX2                !
 ! D106  D(23,8,14,26)           0.0            estimate D2E/DX2                !
 ! D107  D(2,8,23,24)            0.0            estimate D2E/DX2                !
 ! D108  D(2,8,23,33)          180.0            estimate D2E/DX2                !
 ! D109  D(14,8,23,24)         180.0            estimate D2E/DX2                !
 ! D110  D(14,8,23,33)           0.0            estimate D2E/DX2                !
 ! D111  D(3,9,18,20)            0.0            estimate D2E/DX2                !
 ! D112  D(3,9,18,34)          180.0            estimate D2E/DX2                !
 ! D113  D(21,9,18,20)         180.0            estimate D2E/DX2                !
 ! D114  D(21,9,18,34)           0.0            estimate D2E/DX2                !
 ! D115  D(3,9,21,13)            0.0            estimate D2E/DX2                !
 ! D116  D(3,9,21,30)          180.0            estimate D2E/DX2                !
 ! D117  D(18,9,21,13)         180.0            estimate D2E/DX2                !
 ! D118  D(18,9,21,30)           0.0            estimate D2E/DX2                !
 ! D119  D(4,10,16,19)           0.0            estimate D2E/DX2                !
 ! D120  D(4,10,16,32)         180.0            estimate D2E/DX2                !
 ! D121  D(24,10,16,19)        180.0            estimate D2E/DX2                !
 ! D122  D(24,10,16,32)          0.0            estimate D2E/DX2                !
 ! D123  D(4,10,24,23)           0.0            estimate D2E/DX2                !
 ! D124  D(4,10,24,36)         180.0            estimate D2E/DX2                !
 ! D125  D(16,10,24,23)        180.0            estimate D2E/DX2                !
 ! D126  D(16,10,24,36)          0.0            estimate D2E/DX2                !
 ! D127  D(5,11,17,22)           0.0            estimate D2E/DX2                !
 ! D128  D(5,11,17,29)         180.0            estimate D2E/DX2                !
 ! D129  D(20,11,17,22)        180.0            estimate D2E/DX2                !
 ! D130  D(20,11,17,29)          0.0            estimate D2E/DX2                !
 ! D131  D(5,11,20,18)           0.0            estimate D2E/DX2                !
 ! D132  D(5,11,20,31)         180.0            estimate D2E/DX2                !
 ! D133  D(17,11,20,18)        180.0            estimate D2E/DX2                !
 ! D134  D(17,11,20,31)          0.0            estimate D2E/DX2                !
 ! D135  D(6,12,19,16)           0.0            estimate D2E/DX2                !
 ! D136  D(6,12,19,28)         180.0            estimate D2E/DX2                !
 ! D137  D(22,12,19,16)        180.0            estimate D2E/DX2                !
 ! D138  D(22,12,19,28)          0.0            estimate D2E/DX2                !
 ! D139  D(6,12,22,17)           0.0            estimate D2E/DX2                !
 ! D140  D(6,12,22,35)         180.0            estimate D2E/DX2                !
 ! D141  D(19,12,22,17)        180.0            estimate D2E/DX2                !
 ! D142  D(19,12,22,35)          0.0            estimate D2E/DX2                !
 ! D143  D(7,13,21,9)            0.0            estimate D2E/DX2                !
 ! D144  D(7,13,21,30)         180.0            estimate D2E/DX2                !
 ! D145  D(25,13,21,9)         180.0            estimate D2E/DX2                !
 ! D146  D(25,13,21,30)          0.0            estimate D2E/DX2                !
 ! D147  D(8,14,15,7)            0.0            estimate D2E/DX2                !
 ! D148  D(8,14,15,27)         180.0            estimate D2E/DX2                !
 ! D149  D(26,14,15,7)         180.0            estimate D2E/DX2                !
 ! D150  D(26,14,15,27)          0.0            estimate D2E/DX2                !
 ! D151  D(10,16,19,12)          0.0            estimate D2E/DX2                !
 ! D152  D(10,16,19,28)        180.0            estimate D2E/DX2                !
 ! D153  D(32,16,19,12)        180.0            estimate D2E/DX2                !
 ! D154  D(32,16,19,28)          0.0            estimate D2E/DX2                !
 ! D155  D(11,17,22,12)          0.0            estimate D2E/DX2                !
 ! D156  D(11,17,22,35)        180.0            estimate D2E/DX2                !
 ! D157  D(29,17,22,12)        180.0            estimate D2E/DX2                !
 ! D158  D(29,17,22,35)          0.0            estimate D2E/DX2                !
 ! D159  D(9,18,20,11)           0.0            estimate D2E/DX2                !
 ! D160  D(9,18,20,31)         180.0            estimate D2E/DX2                !
 ! D161  D(34,18,20,11)        180.0            estimate D2E/DX2                !
 ! D162  D(34,18,20,31)          0.0            estimate D2E/DX2                !
 ! D163  D(8,23,24,10)           0.0            estimate D2E/DX2                !
 ! D164  D(8,23,24,36)         180.0            estimate D2E/DX2                !
 ! D165  D(33,23,24,10)        180.0            estimate D2E/DX2                !
 ! D166  D(33,23,24,36)          0.0            estimate D2E/DX2                !
 --------------------------------------------------------------------------------
 Trust Radius=3.00D-01 FncErr=1.00D-07 GrdErr=1.00D-06
 Number of steps in this run=    234 maximum allowed number of steps=    234.
 GradGradGradGradGradGradGradGradGradGradGradGradGradGradGradGradGradGrad

                          Input orientation:                          
 ---------------------------------------------------------------------
 Center     Atomic      Atomic             Coordinates (Angstroms)
 Number     Number       Type             X           Y           Z
 ---------------------------------------------------------------------
      1          6           0       -1.427300    0.028000    0.000000
      2          6           0       -0.689400    1.250000    0.000000
      3          6           0       -0.737900   -1.222000    0.000000
      4          6           0        0.737900    1.222000    0.000000
      5          6           0        0.689400   -1.250000    0.000000
      6          6           0        1.427300   -0.028000    0.000000
      7          6           0       -2.849200    0.055800    0.000000
      8          6           0       -1.376200    2.495200    0.000000
      9          6           0       -1.473000   -2.439400    0.000000
     10          6           0        1.473000    2.439400    0.000000
     11          6           0        1.376200   -2.495200    0.000000
     12          6           0        2.849200   -0.055800    0.000000
     13          6           0       -3.558300   -1.178800    0.000000
     14          6           0       -2.800100    2.492000    0.000000
     15          6           0       -3.509400    1.317300    0.000000
     16          6           0        2.895600    2.380300    0.000000
     17          6           0        2.800100   -2.492000    0.000000
     18          6           0       -0.758200   -3.670800    0.000000
     19          6           0        3.558300    1.178800    0.000000
     20          6           0        0.613800   -3.697700    0.000000
     21          6           0       -2.895600   -2.380300    0.000000
     22          6           0        3.509400   -1.317300    0.000000
     23          6           0       -0.613800    3.697700    0.000000
     24          6           0        0.758200    3.670800    0.000000
     25          1           0       -4.645500   -1.154800    0.000000
     26          1           0       -3.323100    3.445400    0.000000
     27          1           0       -4.596700    1.335900    0.000000
     28          1           0        4.645500    1.154800    0.000000
     29          1           0        3.323100   -3.445400    0.000000
     30          1           0       -3.455500   -3.312600    0.000000
     31          1           0        1.141300   -4.648600    0.000000
     32          1           0        3.455500    3.312600    0.000000
     33          1           0       -1.141300    4.648600    0.000000
     34          1           0       -1.322600   -4.600300    0.000000
     35          1           0        4.596700   -1.335900    0.000000
     36          1           0        1.322600    4.600300    0.000000
     37          1           0        0.561300    0.288800    1.402300
     38          8           0       -0.035600   -0.112900    0.742800
     39          1           0       -0.930500   -0.161500    1.129300
 ---------------------------------------------------------------------
                    Distance matrix (angstroms):
                    1          2          3          4          5
     1  C    0.000000
     2  C    1.427508   0.000000
     3  C    1.427506   2.472476   0.000000
     4  C    2.472595   1.427575   2.855017   0.000000
     5  C    2.472590   2.855011   1.427575   2.472476   0.000000
     6  C    2.855149   2.472590   2.472595   1.427506   1.427508
     7  C    1.422172   2.467965   2.467866   3.771911   3.771844
     8  C    2.467729   1.422047   3.771605   2.467885   4.277058
     9  C    2.467823   3.771697   1.422123   4.277140   2.467923
    10  C    3.771815   2.467923   4.277140   1.422123   3.771697
    11  C    3.771757   4.277058   2.467885   3.771605   1.422047
    12  C    4.277321   3.771844   3.771911   2.467866   2.467965
    13  C    2.448985   3.758944   2.820731   4.921501   4.248297
    14  C    2.820616   2.449004   4.248113   3.759035   5.116559
    15  C    2.448966   2.820803   3.758890   4.248369   4.921479
    16  C    4.921461   3.758963   5.116531   2.448944   4.248105
    17  C    4.921515   5.116559   3.759035   4.248113   2.449004
    18  C    3.758832   4.921281   2.448884   5.116425   2.820606
    19  C    5.116693   4.248297   4.921501   2.820731   3.758944
    20  C    4.248168   5.116450   2.820671   4.921265   2.448867
    21  C    2.820605   4.248105   2.448944   5.116531   3.758963
    22  C    5.116722   4.921479   4.248369   3.758890   2.820803
    23  C    3.758787   2.448867   4.921265   2.820671   5.116450
    24  C    4.248106   2.820606   5.116425   2.448884   4.921281
    25  H    3.428677   4.629664   3.908178   5.884741   5.335749
    26  H    3.908028   3.428725   5.335530   4.629819   6.176321
    27  H    3.428658   3.908244   4.629599   5.335816   5.884703
    28  H    6.176454   5.335749   5.884741   3.908178   4.629664
    29  H    5.884795   6.176321   4.629819   5.335530   3.428725
    30  H    3.908095   5.335600   3.428696   6.176342   4.629742
    31  H    5.335569   6.176159   3.908066   5.884444   3.428512
    32  H    5.884754   4.629742   6.176342   3.428696   5.335600
    33  H    4.629443   3.428512   5.884444   3.908066   6.176159
    34  H    4.629484   5.884467   3.428525   6.176151   3.908024
    35  H    6.176471   5.884703   5.335816   4.629599   3.908244
    36  H    5.335530   3.908024   6.176151   3.428525   5.884467
    37  H    2.447242   2.110593   2.436572   1.693663   2.085848
    38  O    1.583804   1.684251   1.508337   1.712312   1.539602
    39  H    1.248214   1.823672   1.561113   2.443962   2.254823
                    6          7          8          9         10
     6  C    0.000000
     7  C    4.277321   0.000000
     8  C    3.771757   2.849632   0.000000
     9  C    3.771815   2.849553   4.935549   0.000000
    10  C    2.467823   4.935885   2.849746   5.699264   0.000000
    11  C    2.467729   4.935748   5.699105   2.849746   4.935549
    12  C    1.422172   5.699493   4.935748   4.935885   2.849553
    13  C    5.116693   1.423749   4.273153   2.436717   6.197205
    14  C    4.921515   2.436695   1.423904   5.106848   4.273424
    15  C    5.116722   1.423814   2.436799   4.273139   5.107193
    16  C    2.820605   6.197260   4.273345   6.504935   1.423827
    17  C    2.820616   6.197247   6.504894   4.273424   5.106848
    18  C    4.248106   4.273152   6.196893   1.423828   6.504829
    19  C    2.448985   6.505166   5.107073   6.197205   2.436717
    20  C    3.758787   5.106969   6.504776   2.436812   6.196953
    21  C    4.921461   2.436542   5.106768   1.423827   6.504935
    22  C    2.448966   6.505167   6.197116   5.107193   4.273139
    23  C    4.248168   4.273225   1.423819   6.196953   2.436812
    24  C    3.758832   5.107011   2.436739   6.504829   1.423828
    25  H    6.176454   2.166159   4.900084   3.422711   7.096078
    26  H    5.884795   3.422568   2.166402   6.168771   4.900471
    27  H    6.176471   2.166198   3.422805   4.900040   6.169195
    28  H    3.428677   7.574848   6.169080   7.096078   3.422711
    29  H    3.908028   7.096174   7.574573   4.900471   6.168771
    30  H    5.884754   3.422531   6.168795   2.166284   7.574669
    31  H    4.629443   6.168912   7.574410   3.422737   7.095757
    32  H    3.908095   7.096195   4.900354   7.574669   2.166284
    33  H    5.335569   4.900075   2.166174   7.095757   3.422737
    34  H    5.335530   4.899977   7.095702   2.166128   7.574481
    35  H    3.428658   7.574844   7.095975   6.169195   4.900040
    36  H    4.629484   6.168987   3.422713   7.574481   2.166128
    37  H    1.678322   3.694894   3.254006   3.680747   2.724467
    38  O    1.642874   2.914885   3.025086   2.833809   3.056446
    39  H    2.617702   2.236950   2.920962   2.599703   3.717097
                   11         12         13         14         15
    11  C    0.000000
    12  C    2.849632   0.000000
    13  C    5.107073   6.505166   0.000000
    14  C    6.504894   6.197247   3.748285   0.000000
    15  C    6.197116   6.505167   2.496579   1.372234   0.000000
    16  C    5.106768   2.436542   7.370212   5.696795   6.492611
    17  C    1.423904   2.436695   6.492592   7.496832   7.370248
    18  C    2.436739   5.107011   3.748416   6.492262   5.696511
    19  C    4.273153   1.423749   7.496951   6.492592   7.069057
    20  C    1.423819   4.273225   4.873528   7.068741   6.492380
    21  C    4.273345   6.197260   1.372142   4.873236   3.748199
    22  C    2.436799   1.423814   7.069057   7.370248   7.496977
    23  C    6.504776   5.106969   5.696519   2.496722   3.748440
    24  C    6.196893   4.273152   6.492364   3.748475   4.873538
    25  H    6.169080   7.574848   1.087465   4.087132   2.720662
    26  H    7.574573   7.096174   4.630178   1.087428   2.136239
    27  H    7.095975   7.574844   2.720660   2.136431   1.087459
    28  H    4.900084   2.166159   8.529245   7.564725   8.156519
    29  H    2.166402   3.422568   7.245077   8.529144   8.328647
    30  H    4.900354   7.096195   2.136275   5.841484   4.630214
    31  H    2.166174   4.900075   5.841725   8.156151   7.564455
    32  H    6.168795   3.422531   8.328629   6.309193   7.245071
    33  H    7.574410   6.168912   6.308762   2.720761   4.087231
    34  H    3.422713   6.168987   4.087177   7.244565   6.308731
    35  H    3.422805   2.166198   8.156513   8.328593   8.529263
    36  H    7.095702   4.899977   7.564468   4.630506   5.841773
    37  H    3.221981   2.705491   4.592537   4.256706   4.426608
    38  O    2.867104   2.979443   3.754638   3.870364   3.829427
    39  H    3.470207   3.946216   3.035713   3.436828   3.180078
                   16         17         18         19         20
    16  C    0.000000
    17  C    4.873236   0.000000
    18  C    7.068668   3.748475   0.000000
    19  C    1.372142   3.748285   6.492364   0.000000
    20  C    6.492203   2.496722   1.372264   5.696519   0.000000
    21  C    7.496753   5.696795   2.496772   7.370212   3.748524
    22  C    3.748199   1.372234   4.873538   2.496579   3.748440
    23  C    3.748524   7.068741   7.369915   4.873528   7.496595
    24  C    2.496772   6.492262   7.496570   3.748416   7.369915
    25  H    8.328573   7.564725   4.630481   8.529245   5.841796
    26  H    6.309253   8.529144   7.564325   7.245077   8.156167
    27  H    7.564743   8.328593   6.308813   8.156513   7.244753
    28  H    2.136352   4.087132   7.244749   1.087465   6.308832
    29  H    5.841364   1.087428   4.087519   4.630178   2.721022
    30  H    8.529102   6.309193   2.720980   8.328629   4.087481
    31  H    7.244515   2.720761   2.136397   6.308762   1.087413
    32  H    1.087507   5.841484   8.156172   2.136275   7.564362
    33  H    4.630523   8.156151   8.328216   5.841725   8.528839
    34  H    8.156101   4.630506   1.087436   7.564468   2.136430
    35  H    4.087038   2.136431   5.841807   2.720660   4.630507
    36  H    2.720796   7.244565   8.528823   4.087177   8.328217
    37  H    3.433624   3.835560   4.402949   3.426449   4.226273
    38  O    3.919149   3.775323   3.705746   3.890547   3.718099
    39  H    4.730233   4.541357   3.690554   4.818822   4.020559
                   21         22         23         24         25
    21  C    0.000000
    22  C    6.492611   0.000000
    23  C    6.492203   6.492380   0.000000
    24  C    7.068668   5.696511   1.372264   0.000000
    25  H    2.136352   8.156519   6.308832   7.244749   0.000000
    26  H    5.841364   8.328647   2.721022   4.087519   4.786500
    27  H    4.087038   8.529263   4.630507   5.841807   2.491178
    28  H    8.328573   2.720662   5.841796   4.630481   9.573763
    29  H    6.309253   2.136239   8.156167   7.564325   8.291287
    30  H    1.087507   7.245071   7.564362   8.156172   2.464184
    31  H    4.630523   4.087231   8.528839   8.328216   6.759711
    32  H    8.529102   4.630214   4.087481   2.720980   9.251155
    33  H    7.244515   7.564455   1.087413   2.136397   6.779297
    34  H    2.720796   5.841773   8.328217   8.528823   4.786767
    35  H    7.564743   1.087459   7.244753   6.308813   9.243974
    36  H    8.156101   6.308731   2.136430   1.087436   8.290922
    37  H    4.587014   3.638310   3.868838   3.666489   5.582221
    38  O    3.724574   3.816983   3.925142   3.936782   4.784191
    39  H    3.171752   4.724818   4.033490   4.337459   4.007891
                   26         27         28         29         30
    26  H    0.000000
    27  H    2.464152   0.000000
    28  H    8.291287   9.243974   0.000000
    29  H    9.573667   9.251165   4.786500   0.000000
    30  H    6.759297   4.786532   9.251155   6.779901   0.000000
    31  H    9.243576   8.290892   6.779297   2.491574   4.787010
    32  H    6.779901   8.291277   2.464184   6.759297   9.573672
    33  H    2.491574   4.786833   6.759711   9.243576   8.290731
    34  H    8.290675   6.779248   8.290922   4.787100   2.491472
    35  H    9.251165   9.573772   2.491178   2.464152   8.291277
    36  H    4.787100   6.759765   4.786767   8.290675   9.243605
    37  H    5.197993   5.446818   4.404213   4.851622   5.574155
    38  O    4.901113   4.842975   4.906273   4.789381   4.741893
    39  H    4.473207   4.118076   5.839498   5.491123   4.192896
                   31         32         33         34         35
    31  H    0.000000
    32  H    8.290731   0.000000
    33  H    9.573306   4.787010   0.000000
    34  H    2.464373   9.243605   9.250677   0.000000
    35  H    4.786833   4.786532   8.290892   6.759765   0.000000
    36  H    9.250677   2.491472   2.464373   9.573303   6.779248
    37  H    5.165343   4.414318   4.886016   5.423912   4.570618
    38  O    4.744409   4.947078   4.944311   4.727037   4.848266
    39  H    5.069688   5.708037   4.945383   4.596956   5.762332
                   36         37         38         39
    36  H    0.000000
    37  H    4.597288   0.000000
    38  O    4.960919   0.976009   0.000000
    39  H    5.387626   1.582013   0.976007   0.000000
 Stoichiometry    C24H14O
 Framework group  C1[X(C24H14O)]
 Deg. of freedom   111
 Full point group                 C1      NOp   1
 Largest Abelian subgroup         C1      NOp   1
 Largest concise Abelian subgroup C1      NOp   1
                         Standard orientation:                         
 ---------------------------------------------------------------------
 Center     Atomic      Atomic             Coordinates (Angstroms)
 Number     Number       Type             X           Y           Z
 ---------------------------------------------------------------------
      1          6           0       -1.359191    0.423819   -0.051048
      2          6           0       -0.312990    1.395027   -0.051048
      3          6           0       -1.041125   -0.967801   -0.051048
      4          6           0        1.051276    0.974615   -0.051048
      5          6           0        0.323142   -1.388213   -0.051048
      6          6           0        1.369342   -0.417005   -0.051048
      7          6           0       -2.718322    0.842550   -0.051048
      8          6           0       -0.629880    2.781316   -0.051048
      9          6           0       -2.083366   -1.935359   -0.051048
     10          6           0        2.093517    1.942173   -0.051048
     11          6           0        0.640031   -2.774503   -0.051048
     12          6           0        2.728473   -0.835737   -0.051048
     13          6           0       -3.740312   -0.148709   -0.051048
     14          6           0       -1.999480    3.170800   -0.051048
     15          6           0       -3.005149    2.237174   -0.051048
     16          6           0        3.444692    1.493162   -0.051048
     17          6           0        2.009631   -3.163987   -0.051048
     18          6           0       -1.735756   -3.316103   -0.051048
     19          6           0        3.750463    0.155523   -0.051048
     20          6           0       -0.424344   -3.720212   -0.051048
     21          6           0       -3.434540   -1.486348   -0.051048
     22          6           0        3.015300   -2.230361   -0.051048
     23          6           0        0.434495    3.727025   -0.051048
     24          6           0        1.745908    3.322916   -0.051048
     25          1           0       -4.778762    0.174094   -0.051048
     26          1           0       -2.239365    4.231439   -0.051048
     27          1           0       -4.045183    2.554815   -0.051048
     28          1           0        4.788913   -0.167281   -0.051048
     29          1           0        2.249517   -4.224626   -0.051048
     30          1           0       -4.229771   -2.228157   -0.051048
     31          1           0       -0.179443   -4.779688   -0.051048
     32          1           0        4.239922    2.234970   -0.051048
     33          1           0        0.189595    4.786502   -0.051048
     34          1           0       -2.534540   -4.053979   -0.051048
     35          1           0        4.055334   -2.548001   -0.051048
     36          1           0        2.544692    4.060793   -0.051048
     37          1           0        0.624243    0.126268    1.351252
     38          8           0       -0.060270   -0.095303    0.691752
     39          1           0       -0.933888    0.104698    1.078252
 ---------------------------------------------------------------------
 Rotational constants (GHZ):      0.3308734      0.3305832      0.1666111
 Standard basis: 6-31G(d) (6D, 7F)
 There are   403 symmetry adapted basis functions of A   symmetry.
 Integral buffers will be    131072 words long.
 Raffenetti 2 integral format.
 Two-electron integral symmetry is turned on.
   403 basis functions,   756 primitive gaussians,   403 cartesian basis functions
    83 alpha electrons       83 beta electrons
       nuclear repulsion energy      2129.7822451111 Hartrees.
 NAtoms=   39 NActive=   39 NUniq=   39 SFac= 1.00D+00 NAtFMM=   50 NAOKFM=F Big=F
 One-electron integrals computed using PRISM.
 NBasis=   403 RedAO= T  NBF=   403
 NBsUse=   403 1.00D-06 NBFU=   403
 Harris functional with IExCor=  402 diagonalized for initial guess.
 ExpMin= 1.61D-01 ExpMax= 5.48D+03 ExpMxC= 8.25D+02 IAcc=1 IRadAn=         1 AccDes= 0.00D+00
 HarFok:  IExCor=  402 AccDes= 0.00D+00 IRadAn=         1 IDoV= 1
 ScaDFX=  1.000000  1.000000  1.000000  1.000000
 FoFCou: FMM=F IPFlag=           0 FMFlag=      100000 FMFlg1=           0
         NFxFlg=           0 DoJE=T BraDBF=F KetDBF=T FulRan=T
         Omega=  0.000000  0.000000  1.000000  0.000000  0.000000 ICntrl=     500 IOpCl=  0
         NMat0=    1 NMatS0=    1 NMatT0=    0 NMatD0=    1 NMtDS0=    0 NMtDT0=    0
         I1Cent=           4 NGrid=           0.
 Petite list used in FoFCou.
 Initial guess orbital symmetries:
       Occupied  (A) (A) (A) (A) (A) (A) (A) (A) (A) (A) (A) (A)
                 (A) (A) (A) (A) (A) (A) (A) (A) (A) (A) (A) (A)
                 (A) (A) (A) (A) (A) (A) (A) (A) (A) (A) (A) (A)
                 (A) (A) (A) (A) (A) (A) (A) (A) (A) (A) (A) (A)
                 (A) (A) (A) (A) (A) (A) (A) (A) (A) (A) (A) (A)
                 (A) (A) (A) (A) (A) (A) (A) (A) (A) (A) (A) (A)
                 (A) (A) (A) (A) (A) (A) (A) (A) (A) (A) (A)
       Virtual   (A) (A) (A) (A) (A) (A) (A) (A) (A) (A) (A) (A)
                 (A) (A) (A) (A) (A) (A) (A) (A) (A) (A) (A) (A)
                 (A) (A) (A) (A) (A) (A) (A) (A) (A) (A) (A) (A)
                 (A) (A) (A) (A) (A) (A) (A) (A) (A) (A) (A) (A)
                 (A) (A) (A) (A) (A) (A) (A) (A) (A) (A) (A) (A)
                 (A) (A) (A) (A) (A) (A) (A) (A) (A) (A) (A) (A)
                 (A) (A) (A) (A) (A) (A) (A) (A) (A) (A) (A) (A)
                 (A) (A) (A) (A) (A) (A) (A) (A) (A) (A) (A) (A)
                 (A) (A) (A) (A) (A) (A) (A) (A) (A) (A) (A) (A)
                 (A) (A) (A) (A) (A) (A) (A) (A) (A) (A) (A) (A)
                 (A) (A) (A) (A) (A) (A) (A) (A) (A) (A) (A) (A)
                 (A) (A) (A) (A) (A) (A) (A) (A) (A) (A) (A) (A)
                 (A) (A) (A) (A) (A) (A) (A) (A) (A) (A) (A) (A)
                 (A) (A) (A) (A) (A) (A) (A) (A) (A) (A) (A) (A)
                 (A) (A) (A) (A) (A) (A) (A) (A) (A) (A) (A) (A)
                 (A) (A) (A) (A) (A) (A) (A) (A) (A) (A) (A) (A)
                 (A) (A) (A) (A) (A) (A) (A) (A) (A) (A) (A) (A)
                 (A) (A) (A) (A) (A) (A) (A) (A) (A) (A) (A) (A)
                 (A) (A) (A) (A) (A) (A) (A) (A) (A) (A) (A) (A)
                 (A) (A) (A) (A) (A) (A) (A) (A) (A) (A) (A) (A)
                 (A) (A) (A) (A) (A) (A) (A) (A) (A) (A) (A) (A)
                 (A) (A) (A) (A) (A) (A) (A) (A) (A) (A) (A) (A)
                 (A) (A) (A) (A) (A) (A) (A) (A) (A) (A) (A) (A)
                 (A) (A) (A) (A) (A) (A) (A) (A) (A) (A) (A) (A)
                 (A) (A) (A) (A) (A) (A) (A) (A) (A) (A) (A) (A)
                 (A) (A) (A) (A) (A) (A) (A) (A) (A) (A) (A) (A)
                 (A) (A) (A) (A) (A) (A) (A) (A)
 The electronic state of the initial guess is 1-A.
 Requested convergence on RMS density matrix=1.00D-08 within  64 cycles.
 Requested convergence on MAX density matrix=1.00D-06.
 Requested convergence on             energy=1.00D-06.
 No special actions if energy rises.
 Integral accuracy reduced to 1.0D-05 until final iterations.
 Initial convergence to 1.0D-05 achieved.  Increase integral accuracy.
 SCF Done:  E(RB3LYP) =  -997.417697023     A.U. after   19 cycles
             Convg  =    0.4244D-08             -V/T =  2.0050
 QCSCF skips out because SCF is already converged.

 **********************************************************************

            Population analysis using the SCF density.

 **********************************************************************

 Orbital symmetries:
       Occupied  (A) (A) (A) (A) (A) (A) (A) (A) (A) (A) (A) (A)
                 (A) (A) (A) (A) (A) (A) (A) (A) (A) (A) (A) (A)
                 (A) (A) (A) (A) (A) (A) (A) (A) (A) (A) (A) (A)
                 (A) (A) (A) (A) (A) (A) (A) (A) (A) (A) (A) (A)
                 (A) (A) (A) (A) (A) (A) (A) (A) (A) (A) (A) (A)
                 (A) (A) (A) (A) (A) (A) (A) (A) (A) (A) (A) (A)
                 (A) (A) (A) (A) (A) (A) (A) (A) (A) (A) (A)
       Virtual   (A) (A) (A) (A) (A) (A) (A) (A) (A) (A) (A) (A)
                 (A) (A) (A) (A) (A) (A) (A) (A) (A) (A) (A) (A)
                 (A) (A) (A) (A) (A) (A) (A) (A) (A) (A) (A) (A)
                 (A) (A) (A) (A) (A) (A) (A) (A) (A) (A) (A) (A)
                 (A) (A) (A) (A) (A) (A) (A) (A) (A) (A) (A) (A)
                 (A) (A) (A) (A) (A) (A) (A) (A) (A) (A) (A) (A)
                 (A) (A) (A) (A) (A) (A) (A) (A) (A) (A) (A) (A)
                 (A) (A) (A) (A) (A) (A) (A) (A) (A) (A) (A) (A)
                 (A) (A) (A) (A) (A) (A) (A) (A) (A) (A) (A) (A)
                 (A) (A) (A) (A) (A) (A) (A) (A) (A) (A) (A) (A)
                 (A) (A) (A) (A) (A) (A) (A) (A) (A) (A) (A) (A)
                 (A) (A) (A) (A) (A) (A) (A) (A) (A) (A) (A) (A)
                 (A) (A) (A) (A) (A) (A) (A) (A) (A) (A) (A) (A)
                 (A) (A) (A) (A) (A) (A) (A) (A) (A) (A) (A) (A)
                 (A) (A) (A) (A) (A) (A) (A) (A) (A) (A) (A) (A)
                 (A) (A) (A) (A) (A) (A) (A) (A) (A) (A) (A) (A)
                 (A) (A) (A) (A) (A) (A) (A) (A) (A) (A) (A) (A)
                 (A) (A) (A) (A) (A) (A) (A) (A) (A) (A) (A) (A)
                 (A) (A) (A) (A) (A) (A) (A) (A) (A) (A) (A) (A)
                 (A) (A) (A) (A) (A) (A) (A) (A) (A) (A) (A) (A)
                 (A) (A) (A) (A) (A) (A) (A) (A) (A) (A) (A) (A)
                 (A) (A) (A) (A) (A) (A) (A) (A) (A) (A) (A) (A)
                 (A) (A) (A) (A) (A) (A) (A) (A) (A) (A) (A) (A)
                 (A) (A) (A) (A) (A) (A) (A) (A) (A) (A) (A) (A)
                 (A) (A) (A) (A) (A) (A) (A) (A) (A) (A) (A) (A)
                 (A) (A) (A) (A) (A) (A) (A) (A) (A) (A) (A) (A)
                 (A) (A) (A) (A) (A) (A) (A) (A)
 The electronic state is 1-A.
 Alpha  occ. eigenvalues --  -19.21770 -10.24082 -10.23936 -10.21974 -10.21209
 Alpha  occ. eigenvalues --  -10.20908 -10.20820 -10.19485 -10.19402 -10.19369
 Alpha  occ. eigenvalues --  -10.19130 -10.19016 -10.19000 -10.18951 -10.18943
 Alpha  occ. eigenvalues --  -10.18931 -10.18851 -10.18544 -10.18500 -10.18431
 Alpha  occ. eigenvalues --  -10.18043 -10.17987 -10.17746 -10.17739 -10.17463
 Alpha  occ. eigenvalues --   -1.30352  -0.95219  -0.90537  -0.88009  -0.83221
 Alpha  occ. eigenvalues --   -0.82099  -0.81573  -0.81003  -0.79482  -0.76563
 Alpha  occ. eigenvalues --   -0.75405  -0.70589  -0.70536  -0.67558  -0.67204
 Alpha  occ. eigenvalues --   -0.65151  -0.64462  -0.64315  -0.60670  -0.59189
 Alpha  occ. eigenvalues --   -0.55558  -0.55274  -0.54102  -0.53123  -0.50348
 Alpha  occ. eigenvalues --   -0.48436  -0.47512  -0.46942  -0.46399  -0.46360
 Alpha  occ. eigenvalues --   -0.45486  -0.44840  -0.43936  -0.42922  -0.42412
 Alpha  occ. eigenvalues --   -0.41606  -0.40802  -0.39491  -0.39452  -0.37216
 Alpha  occ. eigenvalues --   -0.36979  -0.36829  -0.36525  -0.35344  -0.34078
 Alpha  occ. eigenvalues --   -0.33107  -0.32827  -0.32499  -0.32304  -0.32261
 Alpha  occ. eigenvalues --   -0.31466  -0.26837  -0.26182  -0.26082  -0.20735
 Alpha  occ. eigenvalues --   -0.20423  -0.18429  -0.14999
 Alpha virt. eigenvalues --   -0.05849  -0.04581  -0.03288  -0.02037   0.01638
 Alpha virt. eigenvalues --    0.02796   0.04556   0.05623   0.08754   0.10027
 Alpha virt. eigenvalues --    0.10554   0.10865   0.11294   0.11408   0.12622
 Alpha virt. eigenvalues --    0.12733   0.15062   0.15236   0.15940   0.16377
 Alpha virt. eigenvalues --    0.17167   0.17384   0.19496   0.19601   0.21373
 Alpha virt. eigenvalues --    0.23204   0.24462   0.24554   0.24858   0.26048
 Alpha virt. eigenvalues --    0.26468   0.26748   0.28961   0.29069   0.29756
 Alpha virt. eigenvalues --    0.29835   0.32951   0.33030   0.34977   0.35660
 Alpha virt. eigenvalues --    0.36223   0.36307   0.40182   0.41855   0.44835
 Alpha virt. eigenvalues --    0.45127   0.45532   0.46692   0.48392   0.48992
 Alpha virt. eigenvalues --    0.49470   0.49890   0.51624   0.52025   0.52226
 Alpha virt. eigenvalues --    0.52763   0.54185   0.54204   0.54516   0.54618
 Alpha virt. eigenvalues --    0.55705   0.55932   0.56807   0.57089   0.57385
 Alpha virt. eigenvalues --    0.57525   0.57960   0.58752   0.59099   0.59188
 Alpha virt. eigenvalues --    0.59827   0.59996   0.60121   0.60183   0.60272
 Alpha virt. eigenvalues --    0.61028   0.61450   0.61616   0.62369   0.63621
 Alpha virt. eigenvalues --    0.63724   0.63934   0.64026   0.64686   0.68068
 Alpha virt. eigenvalues --    0.68513   0.68638   0.69034   0.70073   0.71795
 Alpha virt. eigenvalues --    0.71948   0.73534   0.77012   0.77936   0.78843
 Alpha virt. eigenvalues --    0.79776   0.80612   0.81355   0.81684   0.82598
 Alpha virt. eigenvalues --    0.83018   0.83060   0.84740   0.85524   0.85773
 Alpha virt. eigenvalues --    0.85968   0.86147   0.86450   0.86523   0.86673
 Alpha virt. eigenvalues --    0.87315   0.89326   0.91603   0.92031   0.93634
 Alpha virt. eigenvalues --    0.93835   0.94730   0.94772   0.97076   0.98302
 Alpha virt. eigenvalues --    0.98738   0.99524   1.01316   1.01511   1.01910
 Alpha virt. eigenvalues --    1.02099   1.02418   1.02587   1.03851   1.04385
 Alpha virt. eigenvalues --    1.05141   1.10879   1.11274   1.13406   1.15217
 Alpha virt. eigenvalues --    1.16113   1.16244   1.16510   1.16784   1.17752
 Alpha virt. eigenvalues --    1.20931   1.21245   1.23602   1.26454   1.27204
 Alpha virt. eigenvalues --    1.28809   1.28874   1.30265   1.31006   1.32035
 Alpha virt. eigenvalues --    1.32656   1.35098   1.35373   1.37470   1.37770
 Alpha virt. eigenvalues --    1.38410   1.39895   1.42281   1.42975   1.43105
 Alpha virt. eigenvalues --    1.46369   1.46617   1.46662   1.46921   1.47636
 Alpha virt. eigenvalues --    1.47783   1.48745   1.50684   1.51134   1.51271
 Alpha virt. eigenvalues --    1.51959   1.55329   1.56701   1.58255   1.59437
 Alpha virt. eigenvalues --    1.62346   1.64027   1.65683   1.66637   1.68040
 Alpha virt. eigenvalues --    1.70134   1.72191   1.72318   1.73877   1.74741
 Alpha virt. eigenvalues --    1.76277   1.76686   1.76868   1.80949   1.82511
 Alpha virt. eigenvalues --    1.83352   1.83967   1.85005   1.86401   1.87703
 Alpha virt. eigenvalues --    1.88412   1.88743   1.90967   1.91621   1.92585
 Alpha virt. eigenvalues --    1.92971   1.93847   1.94411   1.95222   1.95457
 Alpha virt. eigenvalues --    1.96073   1.96116   1.96561   1.96603   1.99121
 Alpha virt. eigenvalues --    1.99876   2.01587   2.02097   2.02775   2.04401
 Alpha virt. eigenvalues --    2.05247   2.06051   2.06806   2.07431   2.12635
 Alpha virt. eigenvalues --    2.13196   2.14571   2.14729   2.15848   2.18710
 Alpha virt. eigenvalues --    2.21792   2.24436   2.25479   2.26114   2.26613
 Alpha virt. eigenvalues --    2.26896   2.27190   2.30320   2.30764   2.32327
 Alpha virt. eigenvalues --    2.32546   2.33852   2.34242   2.34469   2.35280
 Alpha virt. eigenvalues --    2.35694   2.39472   2.40884   2.41159   2.41207
 Alpha virt. eigenvalues --    2.41875   2.46526   2.46783   2.48338   2.49601
 Alpha virt. eigenvalues --    2.49952   2.50571   2.54566   2.56638   2.60554
 Alpha virt. eigenvalues --    2.61730   2.62771   2.64054   2.66237   2.68774
 Alpha virt. eigenvalues --    2.69911   2.70908   2.72812   2.73790   2.76572
 Alpha virt. eigenvalues --    2.77646   2.77889   2.80724   2.82034   2.82257
 Alpha virt. eigenvalues --    2.83932   2.84042   2.84164   2.87618   2.89207
 Alpha virt. eigenvalues --    2.90001   2.92206   2.94540   2.94812   2.96238
 Alpha virt. eigenvalues --    2.99621   3.01305   3.02084   3.05742   3.11273
 Alpha virt. eigenvalues --    3.17259   3.18621   3.19382   3.27979   3.32636
 Alpha virt. eigenvalues --    3.35243   3.40455   3.41862   3.54200   3.63216
 Alpha virt. eigenvalues --    4.09140   4.09704   4.10635   4.11323   4.11650
 Alpha virt. eigenvalues --    4.13224   4.16947   4.17117   4.17852   4.21805
 Alpha virt. eigenvalues --    4.25054   4.29088   4.31548   4.33631   4.35303
 Alpha virt. eigenvalues --    4.37662   4.41564   4.45505   4.47038   4.54276
 Alpha virt. eigenvalues --    4.59234   4.64089   4.77253   4.81275   4.99741
          Condensed to atoms (all electrons):
              1          2          3          4          5          6
     1  C    6.662141   0.048245   0.112902   0.002913   0.101727  -0.117933
     2  C    0.048245   5.813536   0.088210   0.114977  -0.132514   0.049525
     3  C    0.112902   0.088210   5.954802  -0.085864   0.036789   0.060369
     4  C    0.002913   0.114977  -0.085864   5.925993   0.048365   0.104568
     5  C    0.101727  -0.132514   0.036789   0.048365   5.756041   0.080565
     6  C   -0.117933   0.049525   0.060369   0.104568   0.080565   6.126291
     7  C    0.474895  -0.084949  -0.105442   0.014367   0.014530  -0.004098
     8  C   -0.095522   0.536809   0.015604  -0.077045  -0.004444   0.016484
     9  C   -0.109594   0.015771   0.543623  -0.003528  -0.088477   0.015915
    10  C    0.015943  -0.072215  -0.003960   0.515043   0.015777  -0.091445
    11  C    0.013633  -0.003833  -0.080410   0.014237   0.544055  -0.090702
    12  C   -0.003283   0.016249   0.013935  -0.082897  -0.075986   0.520382
    13  C    0.011295   0.018283  -0.079265  -0.000194  -0.002056   0.000057
    14  C   -0.088484   0.007695  -0.001696   0.019314   0.000043  -0.000163
    15  C    0.011801  -0.078010   0.018887  -0.002259  -0.000196   0.000048
    16  C   -0.000258   0.018627   0.000075   0.011568  -0.001870  -0.083604
    17  C   -0.000089   0.000005   0.020228  -0.001943   0.009532  -0.082889
    18  C    0.021000  -0.000235   0.013696   0.000042  -0.080274  -0.002583
    19  C    0.000051  -0.002012  -0.000189  -0.082505   0.018648   0.011554
    20  C   -0.002592   0.000084  -0.084899  -0.000229   0.014340   0.019728
    21  C   -0.087790  -0.002109   0.013278   0.000049   0.019525  -0.000110
    22  C    0.000015  -0.000184  -0.001996   0.018776  -0.081644   0.004810
    23  C    0.021195   0.010144  -0.000240  -0.084069   0.000048  -0.002052
    24  C   -0.002316  -0.084132   0.000063   0.010796  -0.000297   0.019802
    25  H    0.004123  -0.000290   0.001202   0.000003   0.000027  -0.000001
    26  H    0.001281   0.003878   0.000023  -0.000261  -0.000001   0.000002
    27  H    0.003875   0.001276  -0.000302   0.000027   0.000003  -0.000001
    28  H   -0.000001   0.000027   0.000002   0.001283  -0.000252   0.003876
    29  H    0.000001   0.000000  -0.000315   0.000027   0.004159   0.001256
    30  H    0.001122   0.000033   0.004046  -0.000001  -0.000293   0.000002
    31  H    0.000024  -0.000001   0.001257   0.000003   0.003848  -0.000294
    32  H    0.000003  -0.000258  -0.000001   0.003638   0.000028   0.001311
    33  H   -0.000286   0.003884   0.000002   0.001357  -0.000001   0.000025
    34  H   -0.000331   0.000003   0.003846  -0.000001   0.001390   0.000026
    35  H   -0.000001   0.000003   0.000027  -0.000280   0.001384   0.003923
    36  H    0.000029   0.001425  -0.000001   0.003523   0.000003  -0.000280
    37  H    0.078573   0.007102   0.068385  -0.039748   0.018555  -0.036159
    38  O   -0.861424  -0.358470  -0.475650  -0.305063  -0.449886  -0.478399
    39  H   -0.001747  -0.032324  -0.051891   0.027952   0.056432   0.052807
              7          8          9         10         11         12
     1  C    0.474895  -0.095522  -0.109594   0.015943   0.013633  -0.003283
     2  C   -0.084949   0.536809   0.015771  -0.072215  -0.003833   0.016249
     3  C   -0.105442   0.015604   0.543623  -0.003960  -0.080410   0.013935
     4  C    0.014367  -0.077045  -0.003528   0.515043   0.014237  -0.082897
     5  C    0.014530  -0.004444  -0.088477   0.015777   0.544055  -0.075986
     6  C   -0.004098   0.016484   0.015915  -0.091445  -0.090702   0.520382
     7  C    4.774207  -0.032700  -0.031626   0.000168   0.000220  -0.000012
     8  C   -0.032700   4.822908   0.000220  -0.038551  -0.000017   0.000151
     9  C   -0.031626   0.000220   4.810211  -0.000020  -0.035210   0.000147
    10  C    0.000168  -0.038551  -0.000020   4.797507   0.000204  -0.035672
    11  C    0.000220  -0.000017  -0.035210   0.000204   4.857558  -0.037083
    12  C   -0.000012   0.000151   0.000147  -0.035672  -0.037083   4.757726
    13  C    0.414767  -0.000230   0.004785  -0.000003   0.000029   0.000000
    14  C    0.009156   0.380798   0.000033  -0.000476   0.000000  -0.000002
    15  C    0.392958   0.008737  -0.000326   0.000056  -0.000003   0.000000
    16  C   -0.000002  -0.000268   0.000000   0.394316   0.000037   0.010068
    17  C   -0.000002   0.000000  -0.000497   0.000043   0.399044   0.011828
    18  C   -0.000425  -0.000003   0.377931   0.000001   0.006506   0.000049
    19  C    0.000000   0.000054  -0.000002   0.009589  -0.000322   0.394539
    20  C    0.000033   0.000001   0.010678  -0.000003   0.375934  -0.000274
    21  C    0.011289   0.000047   0.400596   0.000000  -0.000205  -0.000003
    22  C    0.000000  -0.000002   0.000036  -0.000323   0.003029   0.407580
    23  C   -0.000490   0.386846  -0.000003   0.010581   0.000000   0.000049
    24  C    0.000042   0.010101   0.000001   0.392900  -0.000003  -0.000343
    25  H   -0.037075   0.000021   0.002120   0.000000   0.000000   0.000000
    26  H    0.001990  -0.036362   0.000000   0.000022   0.000000   0.000000
    27  H   -0.035780   0.001978   0.000029   0.000000   0.000000   0.000000
    28  H    0.000000   0.000000   0.000000   0.001996   0.000024  -0.035234
    29  H    0.000000   0.000000   0.000028   0.000000  -0.035724   0.001920
    30  H    0.002050   0.000000  -0.036017   0.000000   0.000021   0.000000
    31  H    0.000000   0.000000   0.002017   0.000000  -0.036806   0.000019
    32  H    0.000000   0.000017   0.000000  -0.036420   0.000000   0.001901
    33  H    0.000025  -0.035735   0.000000   0.001998   0.000000   0.000000
    34  H    0.000031   0.000000  -0.037167   0.000000   0.001936   0.000000
    35  H    0.000000   0.000000   0.000000   0.000023   0.002042  -0.037228
    36  H    0.000000   0.001894   0.000000  -0.036210   0.000000   0.000020
    37  H   -0.002184  -0.003421  -0.001606  -0.003435  -0.001570  -0.000940
    38  O    0.026771   0.004830   0.022313   0.014781  -0.006392   0.006529
    39  H   -0.000211  -0.004505  -0.004450  -0.001391  -0.002093  -0.000817
             13         14         15         16         17         18
     1  C    0.011295  -0.088484   0.011801  -0.000258  -0.000089   0.021000
     2  C    0.018283   0.007695  -0.078010   0.018627   0.000005  -0.000235
     3  C   -0.079265  -0.001696   0.018887   0.000075   0.020228   0.013696
     4  C   -0.000194   0.019314  -0.002259   0.011568  -0.001943   0.000042
     5  C   -0.002056   0.000043  -0.000196  -0.001870   0.009532  -0.080274
     6  C    0.000057  -0.000163   0.000048  -0.083604  -0.082889  -0.002583
     7  C    0.414767   0.009156   0.392958  -0.000002  -0.000002  -0.000425
     8  C   -0.000230   0.380798   0.008737  -0.000268   0.000000  -0.000003
     9  C    0.004785   0.000033  -0.000326   0.000000  -0.000497   0.377931
    10  C   -0.000003  -0.000476   0.000056   0.394316   0.000043   0.000001
    11  C    0.000029   0.000000  -0.000003   0.000037   0.399044   0.006506
    12  C    0.000000  -0.000002   0.000000   0.010068   0.011828   0.000049
    13  C    5.194106   0.008896  -0.096028   0.000000   0.000001   0.009698
    14  C    0.008896   5.207949   0.453042  -0.000014   0.000000   0.000001
    15  C   -0.096028   0.453042   5.183223   0.000001   0.000000  -0.000018
    16  C    0.000000  -0.000014   0.000001   5.194550  -0.000429   0.000000
    17  C    0.000001   0.000000   0.000000  -0.000429   5.178676   0.009385
    18  C    0.009698   0.000001  -0.000018   0.000000   0.009385   5.200646
    19  C    0.000000   0.000001   0.000000   0.446033   0.009158   0.000001
    20  C   -0.000416   0.000000   0.000001   0.000001  -0.098792   0.465245
    21  C    0.441913  -0.000422   0.009396   0.000000  -0.000013  -0.101484
    22  C    0.000000   0.000000   0.000000   0.009205   0.450480  -0.000404
    23  C   -0.000014  -0.099543   0.009514   0.009039   0.000000   0.000000
    24  C    0.000001   0.009490  -0.000427  -0.098057   0.000001   0.000000
    25  H    0.349743   0.000201  -0.007879   0.000000   0.000000  -0.000215
    26  H   -0.000219   0.348969  -0.037526   0.000000   0.000000   0.000000
    27  H   -0.007501  -0.037948   0.349395   0.000000   0.000000   0.000000
    28  H    0.000000   0.000000   0.000000  -0.038752   0.000184   0.000000
    29  H    0.000000   0.000000   0.000000   0.000003   0.345779   0.000171
    30  H   -0.038285   0.000003  -0.000219   0.000000   0.000000  -0.007537
    31  H    0.000003   0.000000   0.000000   0.000000  -0.008087  -0.037164
    32  H    0.000000   0.000000   0.000000   0.349503   0.000003   0.000000
    33  H    0.000000  -0.007554   0.000165  -0.000220   0.000000   0.000000
    34  H    0.000179   0.000000   0.000000   0.000000  -0.000222   0.348892
    35  H    0.000000   0.000000   0.000000   0.000190  -0.037679   0.000003
    36  H    0.000000  -0.000219   0.000003  -0.007380   0.000000   0.000000
    37  H    0.000005  -0.000065   0.000215   0.000793   0.001009   0.000217
    38  O   -0.001066   0.000588  -0.000585  -0.000381  -0.001307  -0.000623
    39  H   -0.000671   0.001128  -0.001317   0.000011   0.000027  -0.001071
             19         20         21         22         23         24
     1  C    0.000051  -0.002592  -0.087790   0.000015   0.021195  -0.002316
     2  C   -0.002012   0.000084  -0.002109  -0.000184   0.010144  -0.084132
     3  C   -0.000189  -0.084899   0.013278  -0.001996  -0.000240   0.000063
     4  C   -0.082505  -0.000229   0.000049   0.018776  -0.084069   0.010796
     5  C    0.018648   0.014340   0.019525  -0.081644   0.000048  -0.000297
     6  C    0.011554   0.019728  -0.000110   0.004810  -0.002052   0.019802
     7  C    0.000000   0.000033   0.011289   0.000000  -0.000490   0.000042
     8  C    0.000054   0.000001   0.000047  -0.000002   0.386846   0.010101
     9  C   -0.000002   0.010678   0.400596   0.000036  -0.000003   0.000001
    10  C    0.009589  -0.000003   0.000000  -0.000323   0.010581   0.392900
    11  C   -0.000322   0.375934  -0.000205   0.003029   0.000000  -0.000003
    12  C    0.394539  -0.000274  -0.000003   0.407580   0.000049  -0.000343
    13  C    0.000000  -0.000416   0.441913   0.000000  -0.000014   0.000001
    14  C    0.000001   0.000000  -0.000422   0.000000  -0.099543   0.009490
    15  C    0.000000   0.000001   0.009396   0.000000   0.009514  -0.000427
    16  C    0.446033   0.000001   0.000000   0.009205   0.009039  -0.098057
    17  C    0.009158  -0.098792  -0.000013   0.450480   0.000000   0.000001
    18  C    0.000001   0.465245  -0.101484  -0.000404   0.000000   0.000000
    19  C    5.193232  -0.000015   0.000000  -0.098832  -0.000426   0.009237
    20  C   -0.000015   5.187583   0.008975   0.009374   0.000000   0.000000
    21  C    0.000000   0.008975   5.190940   0.000001   0.000001   0.000000
    22  C   -0.098832   0.009374   0.000001   5.206975   0.000001  -0.000016
    23  C   -0.000426   0.000000   0.000001   0.000001   5.198031   0.451064
    24  C    0.009237   0.000000   0.000000  -0.000016   0.451064   5.191454
    25  H    0.000000   0.000003  -0.037897   0.000000   0.000000   0.000000
    26  H    0.000000   0.000000   0.000003   0.000000  -0.007898   0.000176
    27  H    0.000000   0.000000   0.000175   0.000000  -0.000214   0.000003
    28  H    0.349590   0.000000   0.000000  -0.007455   0.000003  -0.000209
    29  H   -0.000229  -0.007696   0.000000  -0.038057   0.000000   0.000000
    30  H    0.000000   0.000209   0.347988   0.000000   0.000000   0.000000
    31  H    0.000000   0.348392  -0.000229   0.000185   0.000000   0.000000
    32  H   -0.037547   0.000000   0.000000  -0.000214   0.000201  -0.007531
    33  H    0.000003   0.000000   0.000000   0.000000   0.347243  -0.037732
    34  H    0.000000  -0.036707  -0.007586   0.000003   0.000000   0.000000
    35  H   -0.007679  -0.000217   0.000000   0.349661   0.000000   0.000000
    36  H    0.000181   0.000000   0.000000   0.000000  -0.037185   0.348888
    37  H    0.000095  -0.000309   0.000061  -0.000493   0.000538  -0.000404
    38  O   -0.000181   0.000801   0.000618   0.000299  -0.000565  -0.000592
    39  H    0.000070   0.000551   0.002626   0.000020  -0.000166   0.000195
             25         26         27         28         29         30
     1  C    0.004123   0.001281   0.003875  -0.000001   0.000001   0.001122
     2  C   -0.000290   0.003878   0.001276   0.000027   0.000000   0.000033
     3  C    0.001202   0.000023  -0.000302   0.000002  -0.000315   0.004046
     4  C    0.000003  -0.000261   0.000027   0.001283   0.000027  -0.000001
     5  C    0.000027  -0.000001   0.000003  -0.000252   0.004159  -0.000293
     6  C   -0.000001   0.000002  -0.000001   0.003876   0.001256   0.000002
     7  C   -0.037075   0.001990  -0.035780   0.000000   0.000000   0.002050
     8  C    0.000021  -0.036362   0.001978   0.000000   0.000000   0.000000
     9  C    0.002120   0.000000   0.000029   0.000000   0.000028  -0.036017
    10  C    0.000000   0.000022   0.000000   0.001996   0.000000   0.000000
    11  C    0.000000   0.000000   0.000000   0.000024  -0.035724   0.000021
    12  C    0.000000   0.000000   0.000000  -0.035234   0.001920   0.000000
    13  C    0.349743  -0.000219  -0.007501   0.000000   0.000000  -0.038285
    14  C    0.000201   0.348969  -0.037948   0.000000   0.000000   0.000003
    15  C   -0.007879  -0.037526   0.349395   0.000000   0.000000  -0.000219
    16  C    0.000000   0.000000   0.000000  -0.038752   0.000003   0.000000
    17  C    0.000000   0.000000   0.000000   0.000184   0.345779   0.000000
    18  C   -0.000215   0.000000   0.000000   0.000000   0.000171  -0.007537
    19  C    0.000000   0.000000   0.000000   0.349590  -0.000229   0.000000
    20  C    0.000003   0.000000   0.000000   0.000000  -0.007696   0.000209
    21  C   -0.037897   0.000003   0.000175   0.000000   0.000000   0.347988
    22  C    0.000000   0.000000   0.000000  -0.007455  -0.038057   0.000000
    23  C    0.000000  -0.007898  -0.000214   0.000003   0.000000   0.000000
    24  C    0.000000   0.000176   0.000003  -0.000209   0.000000   0.000000
    25  H    0.602402  -0.000008   0.006754   0.000000   0.000000  -0.004553
    26  H   -0.000008   0.595909  -0.004311   0.000000   0.000000   0.000000
    27  H    0.006754  -0.004311   0.593129   0.000000   0.000000  -0.000009
    28  H    0.000000   0.000000   0.000000   0.592862  -0.000008   0.000000
    29  H    0.000000   0.000000   0.000000  -0.000008   0.601543   0.000000
    30  H   -0.004553   0.000000  -0.000009   0.000000   0.000000   0.598689
    31  H    0.000000   0.000000   0.000000   0.000000   0.006886  -0.000008
    32  H    0.000000   0.000000   0.000000  -0.004318   0.000000   0.000000
    33  H    0.000000   0.006939  -0.000008   0.000000   0.000000   0.000000
    34  H   -0.000009   0.000000   0.000000   0.000000  -0.000009   0.006716
    35  H    0.000000   0.000000   0.000000   0.006755  -0.004531   0.000000
    36  H    0.000000  -0.000009   0.000000  -0.000009   0.000000   0.000000
    37  H   -0.000003  -0.000002  -0.000005   0.000006  -0.000020  -0.000004
    38  O    0.000010   0.000016   0.000016   0.000012   0.000030   0.000030
    39  H    0.000054  -0.000014   0.000043  -0.000001  -0.000003  -0.000048
             31         32         33         34         35         36
     1  C    0.000024   0.000003  -0.000286  -0.000331  -0.000001   0.000029
     2  C   -0.000001  -0.000258   0.003884   0.000003   0.000003   0.001425
     3  C    0.001257  -0.000001   0.000002   0.003846   0.000027  -0.000001
     4  C    0.000003   0.003638   0.001357  -0.000001  -0.000280   0.003523
     5  C    0.003848   0.000028  -0.000001   0.001390   0.001384   0.000003
     6  C   -0.000294   0.001311   0.000025   0.000026   0.003923  -0.000280
     7  C    0.000000   0.000000   0.000025   0.000031   0.000000   0.000000
     8  C    0.000000   0.000017  -0.035735   0.000000   0.000000   0.001894
[...]
    38  O    3.417290   3.495739   3.446048   3.596513   3.546093
    39  H    2.946126   3.069230   3.325123   3.536824   3.757404
                    6          7          8          9         10
     6  C    0.000000
     7  C    4.273587   0.000000
     8  C    3.769061   2.853334   0.000000
     9  C    3.766244   2.855308   4.941491   0.000000
    10  C    2.465105   4.935634   2.848682   5.697033   0.000000
    11  C    2.467837   4.932743   5.698779   2.839952   4.932940
    12  C    1.421988   5.695573   4.933098   4.927256   2.846895
    13  C    5.111538   1.424016   4.277081   2.441311   6.195866
    14  C    4.918358   2.439006   1.425057   5.113381   4.273459
    15  C    5.113164   1.425133   2.439133   4.280166   5.107027
    16  C    2.820457   6.197538   4.272793   6.501697   1.424309
    17  C    2.821788   6.194343   6.504113   4.263432   5.104145
    18  C    4.248867   4.277791   6.203900   1.422629   6.505960
    19  C    2.448806   6.503185   5.105613   6.190232   2.435759
    20  C    3.759865   5.108455   6.508609   2.430974   6.196252
    21  C    4.915284   2.438751   5.111047   1.425477   6.502334
    22  C    2.450150   6.501879   6.195407   5.097507   4.270424
    23  C    4.246481   4.277505   1.424426   6.202230   2.436997
    24  C    3.756808   5.109939   2.437078   6.506788   1.424083
    25  H    6.171400   2.165853   4.904212   3.427160   7.095251
    26  H    5.883419   3.423937   2.168923   6.175156   4.903659
    27  H    6.173205   2.167932   3.424528   4.908831   6.168918
    28  H    3.428164   7.572459   6.168013   7.087056   3.422584
    29  H    3.909343   7.094713   7.574465   4.891961   6.165617
    30  H    5.878663   3.424012   6.172831   2.166821   7.571781
    31  H    4.630182   6.170512   7.577671   3.417610   7.093987
    32  H    3.907726   7.096417   4.899150   7.571458   2.166782
    33  H    5.333709   4.905531   2.167206   7.102367   3.422859
    34  H    5.336455   4.903670   7.102218   2.166263   7.575526
    35  H    3.430224   7.571830   7.094599   6.159039   4.898062
    36  H    4.627102   6.172690   3.423891   7.576038   2.166364
    37  H    4.396285   4.945132   4.845770   5.106429   4.916936
    38  O    3.617292   4.134217   4.257133   4.178293   4.421168
    39  H    3.850717   3.424208   3.628324   4.054500   4.396278
                   11         12         13         14         15
    11  C    0.000000
    12  C    2.847239   0.000000
    13  C    5.101478   6.499182   0.000000
    14  C    6.503597   6.194476   3.751762   0.000000
    15  C    6.195085   6.501799   2.499638   1.373193   0.000000
    16  C    5.105102   2.435818   7.369041   5.697335   6.493041
    17  C    1.423669   2.435407   6.487024   7.495451   7.368226
    18  C    2.433957   5.103994   3.750342   6.498656   5.702446
    19  C    4.270236   1.423183   7.492958   6.491664   7.067627
    20  C    1.423417   4.270490   4.872285   7.071855   6.494989
    21  C    4.265166   6.189219   1.374230   4.877750   3.752820
    22  C    2.435337   1.423723   7.063293   7.368275   7.494415
    23  C    6.504812   5.105164   5.700993   2.499357   3.751839
    24  C    6.195644   4.270777   6.494854   3.750812   4.876191
    25  H    6.163404   7.569057   1.087532   4.090834   2.723553
    26  H    7.574104   7.095628   4.632628   1.087676   2.135625
    27  H    7.094563   7.571673   2.725709   2.136561   1.087511
    28  H    4.895451   2.165237   8.524365   7.564201   8.155135
    29  H    2.168022   3.420729   7.241149   8.528743   8.327959
    30  H    4.892038   7.087893   2.137503   5.845744   4.634423
    31  H    2.166586   4.896739   5.841018   8.159034   7.567131
    32  H    6.166992   3.422194   8.327561   6.309458   7.245362
    33  H    7.574445   6.166864   6.314944   2.724797   4.092110
    34  H    3.421620   6.166641   4.088414   7.250270   6.313856
    35  H    3.420994   2.167347   8.150785   8.327094   8.527088
    36  H    7.093597   4.896828   7.567705   4.634299   5.845722
    37  H    5.165742   5.072153   5.558321   5.393574   5.439664
    38  O    4.338091   4.455794   4.746076   4.831231   4.782148
    39  H    4.745945   4.895376   4.125046   4.004781   3.920151
                   16         17         18         19         20
    16  C    0.000000
    17  C    4.871221   0.000000
    18  C    7.069211   3.743969   0.000000
    19  C    1.372026   3.745330   6.489822   0.000000
    20  C    6.491313   2.493589   1.370410   5.693312   0.000000
    21  C    7.493786   5.688422   2.495518   7.363937   3.744223
    22  C    3.746319   1.371197   4.869289   2.494217   3.744985
    23  C    3.748274   7.068203   7.376643   4.872755   7.500234
    24  C    2.495768   6.490391   7.500767   3.746997   7.371408
    25  H    8.327897   7.559081   4.631734   8.525632   5.840185
    26  H    6.312875   8.529038   7.570508   7.247006   8.159530
    27  H    7.565081   8.327087   6.315856   8.155130   7.248289
    28  H    2.136848   4.081984   7.239638   1.087519   6.302996
    29  H    5.838125   1.087564   4.083861   4.625807   2.719102
    30  H    8.525747   6.300345   2.717889   8.321881   4.082286
    31  H    7.242240   2.717417   2.134354   6.304240   1.087191
    32  H    1.087296   5.839415   8.156500   2.136892   7.563169
    33  H    4.629850   8.155441   8.335692   5.840644   8.532808
    34  H    8.156821   4.627626   1.087618   7.562368   2.136691
    35  H    4.085630   2.134641   5.836375   2.719218   4.625752
    36  H    2.718405   7.241466   8.532311   4.084650   8.328682
    37  H    5.519395   5.737309   5.730394   5.585434   5.754574
    38  O    5.116931   5.044163   4.859017   5.130134   4.924654
    39  H    5.325104   5.611841   4.978260   5.529767   5.263513
                   21         22         23         24         25
    21  C    0.000000
    22  C    6.484226   0.000000
    23  C    6.496505   6.491052   0.000000
    24  C    7.070229   5.694108   1.372793   0.000000
    25  H    2.138714   8.150821   6.313867   7.247936   0.000000
    26  H    5.845288   8.328519   2.726478   4.093248   4.788894
    27  H    4.094004   8.527034   4.633260   5.844127   2.496726
    28  H    8.320756   2.716397   5.841701   4.629889   9.569335
    29  H    6.302523   2.134078   8.155766   7.562056   8.287225
    30  H    1.087276   7.236234   7.568487   8.157496   2.466153
    31  H    4.627035   4.083035   8.531626   8.328560   6.758694
    32  H    8.526239   4.628511   4.086302   2.719198   9.250674
    33  H    7.250517   7.562829   1.087240   2.136698   6.786416
    34  H    2.719660   5.838686   8.334617   8.532862   4.787082
    35  H    7.556052   1.087492   7.243742   6.306753   9.238313
    36  H    8.157902   6.305052   2.137761   1.087698   8.295206
    37  H    5.627644   5.696965   5.384384   5.415794   6.288002
    38  O    4.764118   5.093344   4.961810   5.030759   5.556892
    39  H    4.390904   5.673332   4.463289   4.784709   4.853538
                   26         27         28         29         30
    26  H    0.000000
    27  H    2.461441   0.000000
    28  H    8.293942   9.242637   0.000000
    29  H    9.574341   9.251197   4.779075   0.000000
    30  H    6.762844   4.793435   9.242598   6.772632   0.000000
    31  H    9.246709   8.294737   6.771675   2.489002   4.782772
    32  H    6.783559   8.291393   2.466250   6.755748   9.570402
    33  H    2.499258   4.791138   6.759402   9.243005   8.296693
    34  H    8.295861   6.785617   8.286302   4.785354   2.488139
    35  H    9.251762   9.571865   2.487278   2.459729   8.281874
    36  H    4.794982   6.763529   4.785122   8.286761   9.245165
    37  H    6.112037   6.184024   6.348498   6.510053   6.396824
    38  O    5.664244   5.588272   5.975328   5.868016   5.583755
    39  H    4.808919   4.681532   6.463624   6.491403   5.254657
                   31         32         33         34         35
    31  H    0.000000
    32  H    8.288053   0.000000
    33  H    9.576430   4.785302   0.000000
    34  H    2.464964   9.244108   9.257911   0.000000
    35  H    4.780699   4.785387   8.289511   6.755399   0.000000
    36  H    9.249713   2.487905   2.465893   9.576770   6.775698
    37  H    6.524208   6.244585   6.104180   6.486674   6.446194
    38  O    5.764747   5.955500   5.776058   5.664417   5.943680
    39  H    6.192317   6.147386   5.196976   5.752904   6.586430
                   36         37         38         39
    36  H    0.000000
    37  H    6.153920   0.000000
    38  O    5.882248   0.968731   0.000000
    39  H    5.687581   1.540268   0.969359   0.000000
 Stoichiometry    C24H14O
 Framework group  C1[X(C24H14O)]
 Deg. of freedom   111
 Full point group                 C1      NOp   1
 Largest Abelian subgroup         C1      NOp   1
 Largest concise Abelian subgroup C1      NOp   1
                         Standard orientation:                         
 ---------------------------------------------------------------------
 Center     Atomic      Atomic             Coordinates (Angstroms)
 Number     Number       Type             X           Y           Z
 ---------------------------------------------------------------------
      1          6           0       -0.917291   -1.066800   -0.209961
      2          6           0       -1.391284    0.281073   -0.203555
      3          6           0        0.490178   -1.330618   -0.203138
      4          6           0       -0.459800    1.363422   -0.188283
      5          6           0        1.413862   -0.247885   -0.186698
      6          6           0        0.941412    1.095842   -0.176776
      7          6           0       -1.844727   -2.144198   -0.232602
      8          6           0       -2.787573    0.548777   -0.211523
      9          6           0        0.961677   -2.670142   -0.216193
     10          6           0       -0.926086    2.704929   -0.182150
     11          6           0        2.810903   -0.515128   -0.176113
     12          6           0        1.870433    2.172247   -0.158809
     13          6           0       -1.342402   -3.476618   -0.244774
     14          6           0       -3.692377   -0.552053   -0.228632
     15          6           0       -3.238720   -1.848071   -0.242442
     16          6           0        0.026437    3.763738   -0.165447
     17          6           0        3.716223    0.583454   -0.157497
     18          6           0        2.364324   -2.907567   -0.206986
     19          6           0        1.373988    3.506024   -0.153330
     20          6           0        3.256004   -1.867121   -0.186980
     21          6           0        0.008302   -3.729686   -0.236830
     22          6           0        3.263314    1.877666   -0.149182
     23          6           0       -3.227433    1.903579   -0.206577
     24          6           0       -2.330174    2.942476   -0.193133
     25          1           0       -2.052859   -4.299819   -0.262584
     26          1           0       -4.761171   -0.350408   -0.236115
     27          1           0       -3.946955   -2.673155   -0.260365
     28          1           0        2.087696    4.326471   -0.139683
     29          1           0        4.784775    0.381189   -0.148482
     30          1           0        0.370936   -4.754658   -0.246703
     31          1           0        4.325026   -2.064815   -0.177223
     32          1           0       -0.334617    4.789334   -0.163019
     33          1           0       -4.295806    2.105054   -0.215391
     34          1           0        2.720091   -3.935319   -0.215273
     35          1           0        3.971739    2.702617   -0.134047
     36          1           0       -2.683931    3.971038   -0.191134
     37          1           0       -0.292377    0.059094    3.913485
     38          8           0       -0.120662   -0.245846    3.010177
     39          1           0       -0.962377   -0.613891    2.700795
 ---------------------------------------------------------------------
 Rotational constants (GHZ):      0.2980609      0.2978190      0.1666017
 Standard basis: 6-31G(d) (6D, 7F)
 There are   403 symmetry adapted basis functions of A   symmetry.
 Integral buffers will be    131072 words long.
 Raffenetti 2 integral format.
 Two-electron integral symmetry is turned on.
   403 basis functions,   756 primitive gaussians,   403 cartesian basis functions
    83 alpha electrons       83 beta electrons
       nuclear repulsion energy      2024.1329493745 Hartrees.
 NAtoms=   39 NActive=   39 NUniq=   39 SFac= 1.00D+00 NAtFMM=   50 NAOKFM=F Big=F
 One-electron integrals computed using PRISM.
 NBasis=   403 RedAO= T  NBF=   403
 NBsUse=   403 1.00D-06 NBFU=   403
 Initial guess read from the read-write file.
 B after Tr=     0.000000    0.000000    0.000000
         Rot=    1.000000    0.000000    0.000000    0.000000 Ang=   0.00 deg.
 Initial guess orbital symmetries:
       Occupied  (A) (A) (A) (A) (A) (A) (A) (A) (A) (A) (A) (A)
                 (A) (A) (A) (A) (A) (A) (A) (A) (A) (A) (A) (A)
                 (A) (A) (A) (A) (A) (A) (A) (A) (A) (A) (A) (A)
                 (A) (A) (A) (A) (A) (A) (A) (A) (A) (A) (A) (A)
                 (A) (A) (A) (A) (A) (A) (A) (A) (A) (A) (A) (A)
                 (A) (A) (A) (A) (A) (A) (A) (A) (A) (A) (A) (A)
                 (A) (A) (A) (A) (A) (A) (A) (A) (A) (A) (A)
       Virtual   (A) (A) (A) (A) (A) (A) (A) (A) (A) (A) (A) (A)
                 (A) (A) (A) (A) (A) (A) (A) (A) (A) (A) (A) (A)
                 (A) (A) (A) (A) (A) (A) (A) (A) (A) (A) (A) (A)
                 (A) (A) (A) (A) (A) (A) (A) (A) (A) (A) (A) (A)
                 (A) (A) (A) (A) (A) (A) (A) (A) (A) (A) (A) (A)
                 (A) (A) (A) (A) (A) (A) (A) (A) (A) (A) (A) (A)
                 (A) (A) (A) (A) (A) (A) (A) (A) (A) (A) (A) (A)
                 (A) (A) (A) (A) (A) (A) (A) (A) (A) (A) (A) (A)
                 (A) (A) (A) (A) (A) (A) (A) (A) (A) (A) (A) (A)
                 (A) (A) (A) (A) (A) (A) (A) (A) (A) (A) (A) (A)
                 (A) (A) (A) (A) (A) (A) (A) (A) (A) (A) (A) (A)
                 (A) (A) (A) (A) (A) (A) (A) (A) (A) (A) (A) (A)
                 (A) (A) (A) (A) (A) (A) (A) (A) (A) (A) (A) (A)
                 (A) (A) (A) (A) (A) (A) (A) (A) (A) (A) (A) (A)
                 (A) (A) (A) (A) (A) (A) (A) (A) (A) (A) (A) (A)
                 (A) (A) (A) (A) (A) (A) (A) (A) (A) (A) (A) (A)
                 (A) (A) (A) (A) (A) (A) (A) (A) (A) (A) (A) (A)
                 (A) (A) (A) (A) (A) (A) (A) (A) (A) (A) (A) (A)
                 (A) (A) (A) (A) (A) (A) (A) (A) (A) (A) (A) (A)
                 (A) (A) (A) (A) (A) (A) (A) (A) (A) (A) (A) (A)
                 (A) (A) (A) (A) (A) (A) (A) (A) (A) (A) (A) (A)
                 (A) (A) (A) (A) (A) (A) (A) (A) (A) (A) (A) (A)
                 (A) (A) (A) (A) (A) (A) (A) (A) (A) (A) (A) (A)
                 (A) (A) (A) (A) (A) (A) (A) (A) (A) (A) (A) (A)
                 (A) (A) (A) (A) (A) (A) (A) (A) (A) (A) (A) (A)
                 (A) (A) (A) (A) (A) (A) (A) (A) (A) (A) (A) (A)
                 (A) (A) (A) (A) (A) (A) (A) (A)
 Harris functional with IExCor=  402 diagonalized for initial guess.
 ExpMin= 1.61D-01 ExpMax= 5.48D+03 ExpMxC= 8.25D+02 IAcc=1 IRadAn=         1 AccDes= 0.00D+00
 HarFok:  IExCor=  402 AccDes= 0.00D+00 IRadAn=         1 IDoV= 1
 ScaDFX=  1.000000  1.000000  1.000000  1.000000
 FoFCou: FMM=F IPFlag=           0 FMFlag=      100000 FMFlg1=           0
         NFxFlg=           0 DoJE=T BraDBF=F KetDBF=T FulRan=T
         Omega=  0.000000  0.000000  1.000000  0.000000  0.000000 ICntrl=     500 IOpCl=  0
         NMat0=    1 NMatS0=    1 NMatT0=    0 NMatD0=    1 NMtDS0=    0 NMtDT0=    0
         I1Cent=           4 NGrid=           0.
 Petite list used in FoFCou.
 Requested convergence on RMS density matrix=1.00D-08 within  64 cycles.
 Requested convergence on MAX density matrix=1.00D-06.
 Requested convergence on             energy=1.00D-06.
 No special actions if energy rises.
 Integral accuracy reduced to 1.0D-05 until final iterations.
 Initial convergence to 1.0D-05 achieved.  Increase integral accuracy.
 SCF Done:  E(RB3LYP) =  -998.307078487     A.U. after   15 cycles
             Convg  =    0.4286D-08             -V/T =  2.0095
 QCSCF skips out because SCF is already converged.
 Calling FoFJK, ICntrl=      2127 FMM=F ISym2X=0 I1Cent= 0 IOpClX= 0 NMat=1 NMatS=1 NMatT=0.
 ***** Axes restored to original set *****
 -------------------------------------------------------------------
 Center     Atomic                   Forces (Hartrees/Bohr)
 Number     Number              X              Y              Z
 -------------------------------------------------------------------
      1        6           0.001281055   -0.001169546   -0.000704986
      2        6           0.001296254   -0.000352820    0.000348767
      3        6          -0.002879673    0.003381929   -0.000104111
      4        6          -0.000243809   -0.001048175    0.000444550
      5        6           0.000591288   -0.002854249    0.000492732
      6        6           0.002039609    0.000431582   -0.000247436
      7        6           0.000397634   -0.000025984    0.000132685
      8        6          -0.001061104   -0.000348458   -0.000242280
      9        6          -0.002766225    0.000879676    0.000153242
     10        6           0.000246770    0.000654255   -0.000134043
     11        6           0.001168764    0.000683482   -0.000263656
     12        6          -0.000521255    0.000032064   -0.000133522
     13        6           0.000355247   -0.001565013   -0.000016528
     14        6          -0.000150893   -0.000126441   -0.000281821
     15        6           0.000437289    0.000074239    0.000401105
     16        6          -0.000314268   -0.000093812   -0.000034857
     17        6          -0.000068487   -0.000691449    0.000060202
     18        6          -0.001056425   -0.000186580   -0.000052056
     19        6           0.000309788    0.000295881   -0.000014601
     20        6           0.000997829    0.000002943    0.000092165
     21        6          -0.000171876    0.001573554   -0.000024745
     22        6           0.000335268    0.000471363    0.000063532
     23        6           0.000405890   -0.000099696    0.000114716
     24        6          -0.000471472   -0.000076936    0.000009751
     25        1           0.000006099   -0.000196447    0.000011914
     26        1           0.000261649    0.000051372   -0.000023611
     27        1          -0.000005151   -0.000090309    0.000015084
     28        1          -0.000010890    0.000103799   -0.000021224
     29        1          -0.000323693   -0.000113790   -0.000037211
     30        1          -0.000149469   -0.000059683    0.000011434
     31        1           0.000320248    0.000008731   -0.000071573
     32        1           0.000060123    0.000096775    0.000061252
     33        1          -0.000191995    0.000078636   -0.000012435
     34        1           0.000076126    0.000147363    0.000009048
     35        1          -0.000006000    0.000245698   -0.000028066
     36        1          -0.000196386   -0.000059501    0.000039596
     37        1          -0.001853726    0.001316492   -0.000887916
     38        8           0.000586147   -0.001661136   -0.000733736
     39        1           0.001269723    0.000290192    0.001608639
 -------------------------------------------------------------------
 Cartesian Forces:  Max     0.003381929 RMS     0.000806042

 GradGradGradGradGradGradGradGradGradGradGradGradGradGradGradGradGradGrad
 Berny optimization.
 Using GEDIIS/GDIIS optimizer.
 NTrRot=    -1 NTRed=   318 NAtoms=    39 NSkip=   207 IsLin=F
 Error in internal coordinate system.
 Error termination via Lnk1e in /share/apps/g09/l103.exe at Tue Jun 10 17:39:36 2025.
 Job cpu time:  0 days 16 hours  9 minutes 39.2 seconds.
 File lengths (MBytes):  RWF=    121 Int=      0 D2E=      0 Chk=     11 Scr=      1
