 Entering Gaussian System, Link 0=g09
 Input=WaC2.gjf
 Output=WaC2.log
 Initial command:
 /share/apps/g09/l1.exe /scratch/Gau-3182.inp -scrdir=/scratch/
 Entering Link 1 = /share/apps/g09/l1.exe PID=      3183.
  
 Copyright (c) 1988,1990,1992,1993,1995,1998,2003,2009,2010,
            Gaussian, Inc.  All Rights Reserved.
  
 This is part of the Gaussian(R) 09 program.  It is based on
 the Gaussian(R) 03 system (copyright 2003, Gaussian, Inc.),
 the Gaussian(R) 98 system (copyright 1998, Gaussian, Inc.),
 the Gaussian(R) 94 system (copyright 1995, Gaussian, Inc.),
 the Gaussian 92(TM) system (copyright 1992, Gaussian, Inc.),
 the Gaussian 90(TM) system (copyright 1990, Gaussian, Inc.),
 the Gaussian 88(TM) system (copyright 1988, Gaussian, Inc.),
 the Gaussian 86(TM) system (copyright 1986, Carnegie Mellon
 University), and the Gaussian 82(TM) system (copyright 1983,
 Carnegie Mellon University). Gaussian is a federally registered
 trademark of Gaussian, Inc.
  
 This software contains proprietary and confidential information,
 including trade secrets, belonging to Gaussian, Inc.
  
 This software is provided under written license and may be
 used, copied, transmitted, or stored only in accord with that
 written license.
  
 The following legend is applicable only to US Government
 contracts under FAR:
  
                    RESTRICTED RIGHTS LEGEND
  
 Use, reproduction and disclosure by the US Government is
 subject to restrictions as set forth in subparagraphs (a)
 and (c) of the Commercial Computer Software - Restricted
 Rights clause in FAR 52.227-19.
  
 Gaussian, Inc.
 340 Quinnipiac St., Bldg. 40, Wallingford CT 06492
  
  
 ---------------------------------------------------------------
 Warning -- This program may not be used in any manner that
 competes with the business of Gaussian, Inc. or will provide
 assistance to any competitor of Gaussian, Inc.  The licensee
 of this program is prohibited from giving any competitor of
 Gaussian, Inc. access to this program.  By using this program,
 the user acknowledges that Gaussian, Inc. is engaged in the
 business of creating and licensing software in the field of
 computational chemistry and represents and warrants to the
 licensee that it is not a competitor of Gaussian, Inc. and that
 it will not use this program in any manner prohibited above.
 ---------------------------------------------------------------
  

 Cite this work as:
 Gaussian 09, Revision B.01,
 M. J. Frisch, G. W. Trucks, H. B. Schlegel, G. E. Scuseria, 
 M. A. Robb, J. R. Cheeseman, G. Scalmani, V. Barone, B. Mennucci, 
 G. A. Petersson, H. Nakatsuji, M. Caricato, X. Li, H. P. Hratchian, 
 A. F. Izmaylov, J. Bloino, G. Zheng, J. L. Sonnenberg, M. Hada, 
 M. Ehara, K. Toyota, R. Fukuda, J. Hasegawa, M. Ishida, T. Nakajima, 
 Y. Honda, O. Kitao, H. Nakai, T. Vreven, J. A. Montgomery, Jr., 
 J. E. Peralta, F. Ogliaro, M. Bearpark, J. J. Heyd, E. Brothers, 
 K. N. Kudin, V. N. Staroverov, T. Keith, R. Kobayashi, J. Normand, 
 K. Raghavachari, A. Rendell, J. C. Burant, S. S. Iyengar, J. Tomasi, 
 M. Cossi, N. Rega, J. M. Millam, M. Klene, J. E. Knox, J. B. Cross, 
 V. Bakken, C. Adamo, J. Jaramillo, R. Gomperts, R. E. Stratmann, 
 O. Yazyev, A. J. Austin, R. Cammi, C. Pomelli, J. W. Ochterski, 
 R. L. Martin, K. Morokuma, V. G. Zakrzewski, G. A. Voth, 
 P. Salvador, J. J. Dannenberg, S. Dapprich, A. D. Daniels, 
 O. Farkas, J. B. Foresman, J. V. Ortiz, J. Cioslowski, 
 and D. J. Fox, Gaussian, Inc., Wallingford CT, 2010.
 
 ******************************************
 Gaussian 09:  AM64L-G09RevB.01 12-Aug-2010
                10-Jun-2025 
 ******************************************
 %nprocshared=16
 Will use up to   16 processors via shared memory.
 %mem=20GB
 ---------------------------------------------------
 # opt freq b3lyp/6-31g(d) geom=connectivity scf=xqc
 ---------------------------------------------------
 1/14=-1,18=20,19=15,26=3,38=1,57=2/1,3;
 2/9=110,12=2,17=6,18=5,40=1/2;
 3/5=1,6=6,7=1,11=2,16=1,25=1,30=1,71=1,74=-5/1,2,3;
 4//1;
 5/5=2,8=3,13=1,38=5/2,8;
 6/7=2,8=2,9=2,10=2,28=1/1;
 7//1,2,3,16;
 1/14=-1,18=20,19=15/3(2);
 2/9=110/2;
 99//99;
 2/9=110/2;
 3/5=1,6=6,7=1,11=2,16=1,25=1,30=1,71=1,74=-5/1,2,3;
 4/5=5,16=3/1;
 5/5=2,8=3,13=1,38=5/2,8;
 7//1,2,3,16;
 1/14=-1,18=20,19=15/3(-5);
 2/9=110/2;
 6/7=2,8=2,9=2,10=2,19=2,28=1/1;
 99/9=1/99;
 --------
 Wac_opti
 --------
 Symbolic Z-matrix:
 Charge =  0 Multiplicity = 1
 C                    -1.4273    0.028     0. 
 C                    -0.6894    1.25      0. 
 C                    -0.7379   -1.222     0. 
 C                     0.7379    1.222     0. 
 C                     0.6894   -1.25      0. 
 C                     1.4273   -0.028     0. 
 C                    -2.8492    0.0558    0. 
 C                    -1.3762    2.4952    0. 
 C                    -1.473    -2.4394    0. 
 C                     1.473     2.4394    0. 
 C                     1.3762   -2.4952    0. 
 C                     2.8492   -0.0558    0. 
 C                    -3.5583   -1.1788    0. 
 C                    -2.8001    2.492     0. 
 C                    -3.5094    1.3173    0. 
 C                     2.8956    2.3803    0. 
 C                     2.8001   -2.492     0. 
 C                    -0.7582   -3.6708    0. 
 C                     3.5583    1.1788    0. 
 C                     0.6138   -3.6977    0. 
 C                    -2.8956   -2.3803    0. 
 C                     3.5094   -1.3173    0. 
 C                    -0.6138    3.6977    0. 
 C                     0.7582    3.6708    0. 
 H                    -4.6455   -1.1548    0. 
 H                    -3.3231    3.4454    0. 
 H                    -4.5967    1.3359    0. 
 H                     4.6455    1.1548    0. 
 H                     3.3231   -3.4454    0. 
 H                    -3.4555   -3.3126    0. 
 H                     1.1413   -4.6486    0. 
 H                     3.4555    3.3126    0. 
 H                    -1.1413    4.6486    0. 
 H                    -1.3226   -4.6003    0. 
 H                     4.5967   -1.3359    0. 
 H                     1.3226    4.6003    0. 
 O                    -0.6375   -1.0381   -1.4776 
 H                    -1.1552   -1.4496   -2.1954 
 H                     0.0309   -0.4514   -1.8797 
 

 GradGradGradGradGradGradGradGradGradGradGradGradGradGradGradGradGradGrad
 Berny optimization.
 Initialization pass.
                           ----------------------------
                           !    Initial Parameters    !
                           ! (Angstroms and Degrees)  !
 --------------------------                            --------------------------
 ! Name  Definition              Value          Derivative Info.                !
 --------------------------------------------------------------------------------
 ! R1    R(1,2)                  1.4275         estimate D2E/DX2                !
 ! R2    R(1,3)                  1.4275         estimate D2E/DX2                !
 ! R3    R(1,7)                  1.4222         estimate D2E/DX2                !
 ! R4    R(2,4)                  1.4276         estimate D2E/DX2                !
 ! R5    R(2,8)                  1.422          estimate D2E/DX2                !
 ! R6    R(3,5)                  1.4276         estimate D2E/DX2                !
 ! R7    R(3,9)                  1.4221         estimate D2E/DX2                !
 ! R8    R(3,37)                 1.4924         estimate D2E/DX2                !
 ! R9    R(4,6)                  1.4275         estimate D2E/DX2                !
 ! R10   R(4,10)                 1.4221         estimate D2E/DX2                !
 ! R11   R(5,6)                  1.4275         estimate D2E/DX2                !
 ! R12   R(5,11)                 1.422          estimate D2E/DX2                !
 ! R13   R(6,12)                 1.4222         estimate D2E/DX2                !
 ! R14   R(7,13)                 1.4237         estimate D2E/DX2                !
 ! R15   R(7,15)                 1.4238         estimate D2E/DX2                !
 ! R16   R(8,14)                 1.4239         estimate D2E/DX2                !
 ! R17   R(8,23)                 1.4238         estimate D2E/DX2                !
 ! R18   R(9,18)                 1.4238         estimate D2E/DX2                !
 ! R19   R(9,21)                 1.4238         estimate D2E/DX2                !
 ! R20   R(10,16)                1.4238         estimate D2E/DX2                !
 ! R21   R(10,24)                1.4238         estimate D2E/DX2                !
 ! R22   R(11,17)                1.4239         estimate D2E/DX2                !
 ! R23   R(11,20)                1.4238         estimate D2E/DX2                !
 ! R24   R(12,19)                1.4237         estimate D2E/DX2                !
 ! R25   R(12,22)                1.4238         estimate D2E/DX2                !
 ! R26   R(13,21)                1.3721         estimate D2E/DX2                !
 ! R27   R(13,25)                1.0875         estimate D2E/DX2                !
 ! R28   R(14,15)                1.3722         estimate D2E/DX2                !
 ! R29   R(14,26)                1.0874         estimate D2E/DX2                !
 ! R30   R(15,27)                1.0875         estimate D2E/DX2                !
 ! R31   R(16,19)                1.3721         estimate D2E/DX2                !
 ! R32   R(16,32)                1.0875         estimate D2E/DX2                !
 ! R33   R(17,22)                1.3722         estimate D2E/DX2                !
 ! R34   R(17,29)                1.0874         estimate D2E/DX2                !
 ! R35   R(18,20)                1.3723         estimate D2E/DX2                !
 ! R36   R(18,34)                1.0874         estimate D2E/DX2                !
 ! R37   R(19,28)                1.0875         estimate D2E/DX2                !
 ! R38   R(20,31)                1.0874         estimate D2E/DX2                !
 ! R39   R(21,30)                1.0875         estimate D2E/DX2                !
 ! R40   R(22,35)                1.0875         estimate D2E/DX2                !
 ! R41   R(23,24)                1.3723         estimate D2E/DX2                !
 ! R42   R(23,33)                1.0874         estimate D2E/DX2                !
 ! R43   R(24,36)                1.0874         estimate D2E/DX2                !
 ! R44   R(37,38)                0.976          estimate D2E/DX2                !
 ! R45   R(37,39)                0.976          estimate D2E/DX2                !
 ! A1    A(2,1,3)              119.9969         estimate D2E/DX2                !
 ! A2    A(2,1,7)              120.0055         estimate D2E/DX2                !
 ! A3    A(3,1,7)              119.9977         estimate D2E/DX2                !
 ! A4    A(1,2,4)              120.0017         estimate D2E/DX2                !
 ! A5    A(1,2,8)              119.9952         estimate D2E/DX2                !
 ! A6    A(4,2,8)              120.0031         estimate D2E/DX2                !
 ! A7    A(1,3,5)              120.0015         estimate D2E/DX2                !
 ! A8    A(1,3,9)              119.9976         estimate D2E/DX2                !
 ! A9    A(1,3,37)              85.675          estimate D2E/DX2                !
 ! A10   A(5,3,9)              120.0009         estimate D2E/DX2                !
 ! A11   A(5,3,37)              86.282          estimate D2E/DX2                !
 ! A12   A(9,3,37)              98.063          estimate D2E/DX2                !
 ! A13   A(2,4,6)              120.0015         estimate D2E/DX2                !
 ! A14   A(2,4,10)             120.0009         estimate D2E/DX2                !
 ! A15   A(6,4,10)             119.9976         estimate D2E/DX2                !
 ! A16   A(3,5,6)              120.0017         estimate D2E/DX2                !
 ! A17   A(3,5,11)             120.0031         estimate D2E/DX2                !
 ! A18   A(6,5,11)             119.9952         estimate D2E/DX2                !
 ! A19   A(4,6,5)              119.9969         estimate D2E/DX2                !
 ! A20   A(4,6,12)             119.9977         estimate D2E/DX2                !
 ! A21   A(5,6,12)             120.0055         estimate D2E/DX2                !
 ! A22   A(1,7,13)             118.7511         estimate D2E/DX2                !
 ! A23   A(1,7,15)             118.7452         estimate D2E/DX2                !
 ! A24   A(13,7,15)            122.5037         estimate D2E/DX2                !
 ! A25   A(2,8,14)             118.7505         estimate D2E/DX2                !
 ! A26   A(2,8,23)             118.7455         estimate D2E/DX2                !
 ! A27   A(14,8,23)            122.504          estimate D2E/DX2                !
 ! A28   A(3,9,18)             118.7411         estimate D2E/DX2                !
 ! A29   A(3,9,21)             118.7458         estimate D2E/DX2                !
 ! A30   A(18,9,21)            122.5131         estimate D2E/DX2                !
 ! A31   A(4,10,16)            118.7458         estimate D2E/DX2                !
 ! A32   A(4,10,24)            118.7411         estimate D2E/DX2                !
 ! A33   A(16,10,24)           122.5131         estimate D2E/DX2                !
 ! A34   A(5,11,17)            118.7505         estimate D2E/DX2                !
 ! A35   A(5,11,20)            118.7455         estimate D2E/DX2                !
 ! A36   A(17,11,20)           122.504          estimate D2E/DX2                !
 ! A37   A(6,12,19)            118.7511         estimate D2E/DX2                !
 ! A38   A(6,12,22)            118.7452         estimate D2E/DX2                !
 ! A39   A(19,12,22)           122.5037         estimate D2E/DX2                !
 ! A40   A(7,13,21)            121.2494         estimate D2E/DX2                !
 ! A41   A(7,13,25)            118.6066         estimate D2E/DX2                !
 ! A42   A(21,13,25)           120.144          estimate D2E/DX2                !
 ! A43   A(8,14,15)            121.2529         estimate D2E/DX2                !
 ! A44   A(8,14,26)            118.6188         estimate D2E/DX2                !
 ! A45   A(15,14,26)           120.1283         estimate D2E/DX2                !
 ! A46   A(7,15,14)            121.2507         estimate D2E/DX2                !
 ! A47   A(7,15,27)            118.6051         estimate D2E/DX2                !
 ! A48   A(14,15,27)           120.1441         estimate D2E/DX2                !
 ! A49   A(10,16,19)           121.2583         estimate D2E/DX2                !
 ! A50   A(10,16,32)           118.6083         estimate D2E/DX2                !
 ! A51   A(19,16,32)           120.1334         estimate D2E/DX2                !
 ! A52   A(11,17,22)           121.2529         estimate D2E/DX2                !
 ! A53   A(11,17,29)           118.6188         estimate D2E/DX2                !
 ! A54   A(22,17,29)           120.1283         estimate D2E/DX2                !
 ! A55   A(9,18,20)            121.2574         estimate D2E/DX2                !
 ! A56   A(9,18,34)            118.5993         estimate D2E/DX2                !
 ! A57   A(20,18,34)           120.1432         estimate D2E/DX2                !
 ! A58   A(12,19,16)           121.2494         estimate D2E/DX2                !
 ! A59   A(12,19,28)           118.6066         estimate D2E/DX2                !
 ! A60   A(16,19,28)           120.144          estimate D2E/DX2                !
 ! A61   A(11,20,18)           121.252          estimate D2E/DX2                !
 ! A62   A(11,20,31)           118.606          estimate D2E/DX2                !
 ! A63   A(18,20,31)           120.142          estimate D2E/DX2                !
 ! A64   A(9,21,13)            121.2583         estimate D2E/DX2                !
 ! A65   A(9,21,30)            118.6083         estimate D2E/DX2                !
 ! A66   A(13,21,30)           120.1334         estimate D2E/DX2                !
 ! A67   A(12,22,17)           121.2507         estimate D2E/DX2                !
 ! A68   A(12,22,35)           118.6051         estimate D2E/DX2                !
 ! A69   A(17,22,35)           120.1441         estimate D2E/DX2                !
 ! A70   A(8,23,24)            121.252          estimate D2E/DX2                !
 ! A71   A(8,23,33)            118.606          estimate D2E/DX2                !
 ! A72   A(24,23,33)           120.142          estimate D2E/DX2                !
 ! A73   A(10,24,23)           121.2574         estimate D2E/DX2                !
 ! A74   A(10,24,36)           118.5993         estimate D2E/DX2                !
 ! A75   A(23,24,36)           120.1432         estimate D2E/DX2                !
 ! A76   A(3,37,38)            129.831          estimate D2E/DX2                !
 ! A77   A(3,37,39)            121.8725         estimate D2E/DX2                !
 ! A78   A(38,37,39)           108.2819         estimate D2E/DX2                !
 ! D1    D(3,1,2,4)              0.0            estimate D2E/DX2                !
 ! D2    D(3,1,2,8)            180.0            estimate D2E/DX2                !
 ! D3    D(7,1,2,4)            180.0            estimate D2E/DX2                !
 ! D4    D(7,1,2,8)              0.0            estimate D2E/DX2                !
 ! D5    D(2,1,3,5)              0.0            estimate D2E/DX2                !
 ! D6    D(2,1,3,9)            180.0            estimate D2E/DX2                !
 ! D7    D(2,1,3,37)           -83.1795         estimate D2E/DX2                !
 ! D8    D(7,1,3,5)            180.0            estimate D2E/DX2                !
 ! D9    D(7,1,3,9)              0.0            estimate D2E/DX2                !
 ! D10   D(7,1,3,37)            96.8205         estimate D2E/DX2                !
 ! D11   D(2,1,7,13)           180.0            estimate D2E/DX2                !
 ! D12   D(2,1,7,15)             0.0            estimate D2E/DX2                !
 ! D13   D(3,1,7,13)             0.0            estimate D2E/DX2                !
 ! D14   D(3,1,7,15)           180.0            estimate D2E/DX2                !
 ! D15   D(1,2,4,6)              0.0            estimate D2E/DX2                !
 ! D16   D(1,2,4,10)           180.0            estimate D2E/DX2                !
 ! D17   D(8,2,4,6)            180.0            estimate D2E/DX2                !
 ! D18   D(8,2,4,10)             0.0            estimate D2E/DX2                !
 ! D19   D(1,2,8,14)             0.0            estimate D2E/DX2                !
 ! D20   D(1,2,8,23)           180.0            estimate D2E/DX2                !
 ! D21   D(4,2,8,14)           180.0            estimate D2E/DX2                !
 ! D22   D(4,2,8,23)             0.0            estimate D2E/DX2                !
 ! D23   D(1,3,5,6)              0.0            estimate D2E/DX2                !
 ! D24   D(1,3,5,11)           180.0            estimate D2E/DX2                !
 ! D25   D(9,3,5,6)            180.0            estimate D2E/DX2                !
 ! D26   D(9,3,5,11)             0.0            estimate D2E/DX2                !
 ! D27   D(37,3,5,6)            82.8317         estimate D2E/DX2                !
 ! D28   D(37,3,5,11)          -97.1683         estimate D2E/DX2                !
 ! D29   D(1,3,9,18)           180.0            estimate D2E/DX2                !
 ! D30   D(1,3,9,21)             0.0            estimate D2E/DX2                !
 ! D31   D(5,3,9,18)             0.0            estimate D2E/DX2                !
 ! D32   D(5,3,9,21)           180.0            estimate D2E/DX2                !
 ! D33   D(37,3,9,18)           90.3533         estimate D2E/DX2                !
 ! D34   D(37,3,9,21)          -89.6467         estimate D2E/DX2                !
 ! D35   D(1,3,37,38)         -102.1623         estimate D2E/DX2                !
 ! D36   D(1,3,37,39)           79.397          estimate D2E/DX2                !
 ! D37   D(5,3,37,38)          137.3454         estimate D2E/DX2                !
 ! D38   D(5,3,37,39)          -41.0953         estimate D2E/DX2                !
 ! D39   D(9,3,37,38)           17.5526         estimate D2E/DX2                !
 ! D40   D(9,3,37,39)         -160.8881         estimate D2E/DX2                !
 ! D41   D(2,4,6,5)              0.0            estimate D2E/DX2                !
 ! D42   D(2,4,6,12)           180.0            estimate D2E/DX2                !
 ! D43   D(10,4,6,5)           180.0            estimate D2E/DX2                !
 ! D44   D(10,4,6,12)            0.0            estimate D2E/DX2                !
 ! D45   D(2,4,10,16)          180.0            estimate D2E/DX2                !
 ! D46   D(2,4,10,24)            0.0            estimate D2E/DX2                !
 ! D47   D(6,4,10,16)            0.0            estimate D2E/DX2                !
 ! D48   D(6,4,10,24)          180.0            estimate D2E/DX2                !
 ! D49   D(3,5,6,4)              0.0            estimate D2E/DX2                !
 ! D50   D(3,5,6,12)           180.0            estimate D2E/DX2                !
 ! D51   D(11,5,6,4)           180.0            estimate D2E/DX2                !
 ! D52   D(11,5,6,12)            0.0            estimate D2E/DX2                !
 ! D53   D(3,5,11,17)          180.0            estimate D2E/DX2                !
 ! D54   D(3,5,11,20)            0.0            estimate D2E/DX2                !
 ! D55   D(6,5,11,17)            0.0            estimate D2E/DX2                !
 ! D56   D(6,5,11,20)          180.0            estimate D2E/DX2                !
 ! D57   D(4,6,12,19)            0.0            estimate D2E/DX2                !
 ! D58   D(4,6,12,22)          180.0            estimate D2E/DX2                !
 ! D59   D(5,6,12,19)          180.0            estimate D2E/DX2                !
 ! D60   D(5,6,12,22)            0.0            estimate D2E/DX2                !
 ! D61   D(1,7,13,21)            0.0            estimate D2E/DX2                !
 ! D62   D(1,7,13,25)          180.0            estimate D2E/DX2                !
 ! D63   D(15,7,13,21)         180.0            estimate D2E/DX2                !
 ! D64   D(15,7,13,25)           0.0            estimate D2E/DX2                !
 ! D65   D(1,7,15,14)            0.0            estimate D2E/DX2                !
 ! D66   D(1,7,15,27)          180.0            estimate D2E/DX2                !
 ! D67   D(13,7,15,14)         180.0            estimate D2E/DX2                !
 ! D68   D(13,7,15,27)           0.0            estimate D2E/DX2                !
 ! D69   D(2,8,14,15)            0.0            estimate D2E/DX2                !
 ! D70   D(2,8,14,26)          180.0            estimate D2E/DX2                !
 ! D71   D(23,8,14,15)         180.0            estimate D2E/DX2                !
 ! D72   D(23,8,14,26)           0.0            estimate D2E/DX2                !
 ! D73   D(2,8,23,24)            0.0            estimate D2E/DX2                !
 ! D74   D(2,8,23,33)          180.0            estimate D2E/DX2                !
 ! D75   D(14,8,23,24)         180.0            estimate D2E/DX2                !
 ! D76   D(14,8,23,33)           0.0            estimate D2E/DX2                !
 ! D77   D(3,9,18,20)            0.0            estimate D2E/DX2                !
 ! D78   D(3,9,18,34)          180.0            estimate D2E/DX2                !
 ! D79   D(21,9,18,20)         180.0            estimate D2E/DX2                !
 ! D80   D(21,9,18,34)           0.0            estimate D2E/DX2                !
 ! D81   D(3,9,21,13)            0.0            estimate D2E/DX2                !
 ! D82   D(3,9,21,30)          180.0            estimate D2E/DX2                !
 ! D83   D(18,9,21,13)         180.0            estimate D2E/DX2                !
 ! D84   D(18,9,21,30)           0.0            estimate D2E/DX2                !
 ! D85   D(4,10,16,19)           0.0            estimate D2E/DX2                !
 ! D86   D(4,10,16,32)         180.0            estimate D2E/DX2                !
 ! D87   D(24,10,16,19)        180.0            estimate D2E/DX2                !
 ! D88   D(24,10,16,32)          0.0            estimate D2E/DX2                !
 ! D89   D(4,10,24,23)           0.0            estimate D2E/DX2                !
 ! D90   D(4,10,24,36)         180.0            estimate D2E/DX2                !
 ! D91   D(16,10,24,23)        180.0            estimate D2E/DX2                !
 ! D92   D(16,10,24,36)          0.0            estimate D2E/DX2                !
 ! D93   D(5,11,17,22)           0.0            estimate D2E/DX2                !
 ! D94   D(5,11,17,29)         180.0            estimate D2E/DX2                !
 ! D95   D(20,11,17,22)        180.0            estimate D2E/DX2                !
 ! D96   D(20,11,17,29)          0.0            estimate D2E/DX2                !
 ! D97   D(5,11,20,18)           0.0            estimate D2E/DX2                !
 ! D98   D(5,11,20,31)         180.0            estimate D2E/DX2                !
 ! D99   D(17,11,20,18)        180.0            estimate D2E/DX2                !
 ! D100  D(17,11,20,31)          0.0            estimate D2E/DX2                !
 ! D101  D(6,12,19,16)           0.0            estimate D2E/DX2                !
 ! D102  D(6,12,19,28)         180.0            estimate D2E/DX2                !
 ! D103  D(22,12,19,16)        180.0            estimate D2E/DX2                !
 ! D104  D(22,12,19,28)          0.0            estimate D2E/DX2                !
 ! D105  D(6,12,22,17)           0.0            estimate D2E/DX2                !
 ! D106  D(6,12,22,35)         180.0            estimate D2E/DX2                !
 ! D107  D(19,12,22,17)        180.0            estimate D2E/DX2                !
 ! D108  D(19,12,22,35)          0.0            estimate D2E/DX2                !
 ! D109  D(7,13,21,9)            0.0            estimate D2E/DX2                !
 ! D110  D(7,13,21,30)         180.0            estimate D2E/DX2                !
 ! D111  D(25,13,21,9)         180.0            estimate D2E/DX2                !
 ! D112  D(25,13,21,30)          0.0            estimate D2E/DX2                !
 ! D113  D(8,14,15,7)            0.0            estimate D2E/DX2                !
 ! D114  D(8,14,15,27)         180.0            estimate D2E/DX2                !
 ! D115  D(26,14,15,7)         180.0            estimate D2E/DX2                !
 ! D116  D(26,14,15,27)          0.0            estimate D2E/DX2                !
 ! D117  D(10,16,19,12)          0.0            estimate D2E/DX2                !
 ! D118  D(10,16,19,28)        180.0            estimate D2E/DX2                !
 ! D119  D(32,16,19,12)        180.0            estimate D2E/DX2                !
 ! D120  D(32,16,19,28)          0.0            estimate D2E/DX2                !
 ! D121  D(11,17,22,12)          0.0            estimate D2E/DX2                !
 ! D122  D(11,17,22,35)        180.0            estimate D2E/DX2                !
 ! D123  D(29,17,22,12)        180.0            estimate D2E/DX2                !
 ! D124  D(29,17,22,35)          0.0            estimate D2E/DX2                !
 ! D125  D(9,18,20,11)           0.0            estimate D2E/DX2                !
 ! D126  D(9,18,20,31)         180.0            estimate D2E/DX2                !
 ! D127  D(34,18,20,11)        180.0            estimate D2E/DX2                !
 ! D128  D(34,18,20,31)          0.0            estimate D2E/DX2                !
 ! D129  D(8,23,24,10)           0.0            estimate D2E/DX2                !
 ! D130  D(8,23,24,36)         180.0            estimate D2E/DX2                !
 ! D131  D(33,23,24,10)        180.0            estimate D2E/DX2                !
 ! D132  D(33,23,24,36)          0.0            estimate D2E/DX2                !
 --------------------------------------------------------------------------------
 Trust Radius=3.00D-01 FncErr=1.00D-07 GrdErr=1.00D-06
 Number of steps in this run=    234 maximum allowed number of steps=    234.
 GradGradGradGradGradGradGradGradGradGradGradGradGradGradGradGradGradGrad

                          Input orientation:                          
 ---------------------------------------------------------------------
 Center     Atomic      Atomic             Coordinates (Angstroms)
 Number     Number       Type             X           Y           Z
 ---------------------------------------------------------------------
      1          6           0       -1.427300    0.028000    0.000000
      2          6           0       -0.689400    1.250000    0.000000
      3          6           0       -0.737900   -1.222000    0.000000
      4          6           0        0.737900    1.222000    0.000000
      5          6           0        0.689400   -1.250000    0.000000
      6          6           0        1.427300   -0.028000    0.000000
      7          6           0       -2.849200    0.055800    0.000000
      8          6           0       -1.376200    2.495200    0.000000
      9          6           0       -1.473000   -2.439400    0.000000
     10          6           0        1.473000    2.439400    0.000000
     11          6           0        1.376200   -2.495200    0.000000
     12          6           0        2.849200   -0.055800    0.000000
     13          6           0       -3.558300   -1.178800    0.000000
     14          6           0       -2.800100    2.492000    0.000000
     15          6           0       -3.509400    1.317300    0.000000
     16          6           0        2.895600    2.380300    0.000000
     17          6           0        2.800100   -2.492000    0.000000
     18          6           0       -0.758200   -3.670800    0.000000
     19          6           0        3.558300    1.178800    0.000000
     20          6           0        0.613800   -3.697700    0.000000
     21          6           0       -2.895600   -2.380300    0.000000
     22          6           0        3.509400   -1.317300    0.000000
     23          6           0       -0.613800    3.697700    0.000000
     24          6           0        0.758200    3.670800    0.000000
     25          1           0       -4.645500   -1.154800    0.000000
     26          1           0       -3.323100    3.445400    0.000000
     27          1           0       -4.596700    1.335900    0.000000
     28          1           0        4.645500    1.154800    0.000000
     29          1           0        3.323100   -3.445400    0.000000
     30          1           0       -3.455500   -3.312600    0.000000
     31          1           0        1.141300   -4.648600    0.000000
     32          1           0        3.455500    3.312600    0.000000
     33          1           0       -1.141300    4.648600    0.000000
     34          1           0       -1.322600   -4.600300    0.000000
     35          1           0        4.596700   -1.335900    0.000000
     36          1           0        1.322600    4.600300    0.000000
     37          8           0       -0.637500   -1.038100   -1.477600
     38          1           0       -1.155200   -1.449600   -2.195400
     39          1           0        0.030900   -0.451400   -1.879700
 ---------------------------------------------------------------------
                    Distance matrix (angstroms):
                    1          2          3          4          5
     1  C    0.000000
     2  C    1.427508   0.000000
     3  C    1.427506   2.472476   0.000000
     4  C    2.472595   1.427575   2.855017   0.000000
     5  C    2.472590   2.855011   1.427575   2.472476   0.000000
     6  C    2.855149   2.472590   2.472595   1.427506   1.427508
     7  C    1.422172   2.467965   2.467866   3.771911   3.771844
     8  C    2.467729   1.422047   3.771605   2.467885   4.277058
     9  C    2.467823   3.771697   1.422123   4.277140   2.467923
    10  C    3.771815   2.467923   4.277140   1.422123   3.771697
    11  C    3.771757   4.277058   2.467885   3.771605   1.422047
    12  C    4.277321   3.771844   3.771911   2.467866   2.467965
    13  C    2.448985   3.758944   2.820731   4.921501   4.248297
    14  C    2.820616   2.449004   4.248113   3.759035   5.116559
    15  C    2.448966   2.820803   3.758890   4.248369   4.921479
    16  C    4.921461   3.758963   5.116531   2.448944   4.248105
    17  C    4.921515   5.116559   3.759035   4.248113   2.449004
    18  C    3.758832   4.921281   2.448884   5.116425   2.820606
    19  C    5.116693   4.248297   4.921501   2.820731   3.758944
    20  C    4.248168   5.116450   2.820671   4.921265   2.448867
    21  C    2.820605   4.248105   2.448944   5.116531   3.758963
    22  C    5.116722   4.921479   4.248369   3.758890   2.820803
    23  C    3.758787   2.448867   4.921265   2.820671   5.116450
    24  C    4.248106   2.820606   5.116425   2.448884   4.921281
    25  H    3.428677   4.629664   3.908178   5.884741   5.335749
    26  H    3.908028   3.428725   5.335530   4.629819   6.176321
    27  H    3.428658   3.908244   4.629599   5.335816   5.884703
    28  H    6.176454   5.335749   5.884741   3.908178   4.629664
    29  H    5.884795   6.176321   4.629819   5.335530   3.428725
    30  H    3.908095   5.335600   3.428696   6.176342   4.629742
    31  H    5.335569   6.176159   3.908066   5.884444   3.428512
    32  H    5.884754   4.629742   6.176342   3.428696   5.335600
    33  H    4.629443   3.428512   5.884444   3.908066   6.176159
    34  H    4.629484   5.884467   3.428525   6.176151   3.908024
    35  H    6.176471   5.884703   5.335816   4.629599   3.908244
    36  H    5.335530   3.908024   6.176151   3.428525   5.884467
    37  O    1.985864   2.724224   1.492381   3.030360   1.997215
    38  H    2.660286   3.510640   2.246269   3.942215   2.874399
    39  H    2.426818   2.635691   2.172130   2.614075   2.145846
                    6          7          8          9         10
     6  C    0.000000
     7  C    4.277321   0.000000
     8  C    3.771757   2.849632   0.000000
     9  C    3.771815   2.849553   4.935549   0.000000
    10  C    2.467823   4.935885   2.849746   5.699264   0.000000
    11  C    2.467729   4.935748   5.699105   2.849746   4.935549
    12  C    1.422172   5.699493   4.935748   4.935885   2.849553
    13  C    5.116693   1.423749   4.273153   2.436717   6.197205
    14  C    4.921515   2.436695   1.423904   5.106848   4.273424
    15  C    5.116722   1.423814   2.436799   4.273139   5.107193
    16  C    2.820605   6.197260   4.273345   6.504935   1.423827
    17  C    2.820616   6.197247   6.504894   4.273424   5.106848
    18  C    4.248106   4.273152   6.196893   1.423828   6.504829
    19  C    2.448985   6.505166   5.107073   6.197205   2.436717
    20  C    3.758787   5.106969   6.504776   2.436812   6.196953
    21  C    4.921461   2.436542   5.106768   1.423827   6.504935
    22  C    2.448966   6.505167   6.197116   5.107193   4.273139
    23  C    4.248168   4.273225   1.423819   6.196953   2.436812
    24  C    3.758832   5.107011   2.436739   6.504829   1.423828
    25  H    6.176454   2.166159   4.900084   3.422711   7.096078
    26  H    5.884795   3.422568   2.166402   6.168771   4.900471
    27  H    6.176471   2.166198   3.422805   4.900040   6.169195
    28  H    3.428677   7.574848   6.169080   7.096078   3.422711
    29  H    3.908028   7.096174   7.574573   4.900471   6.168771
    30  H    5.884754   3.422531   6.168795   2.166284   7.574669
    31  H    4.629443   6.168912   7.574410   3.422737   7.095757
    32  H    3.908095   7.096195   4.900354   7.574669   2.166284
    33  H    5.335569   4.900075   2.166174   7.095757   3.422737
    34  H    5.335530   4.899977   7.095702   2.166128   7.574481
    35  H    3.428658   7.574844   7.095975   6.169195   4.900040
    36  H    4.629484   6.168987   3.422713   7.574481   2.166128
    37  O    2.732582   2.876028   3.900409   2.201137   4.327877
    38  H    3.675600   3.155257   4.519963   2.429091   5.181847
    39  H    2.379595   3.476421   3.767712   3.122040   3.737599
                   11         12         13         14         15
    11  C    0.000000
    12  C    2.849632   0.000000
    13  C    5.107073   6.505166   0.000000
    14  C    6.504894   6.197247   3.748285   0.000000
    15  C    6.197116   6.505167   2.496579   1.372234   0.000000
    16  C    5.106768   2.436542   7.370212   5.696795   6.492611
    17  C    1.423904   2.436695   6.492592   7.496832   7.370248
    18  C    2.436739   5.107011   3.748416   6.492262   5.696511
    19  C    4.273153   1.423749   7.496951   6.492592   7.069057
    20  C    1.423819   4.273225   4.873528   7.068741   6.492380
    21  C    4.273345   6.197260   1.372142   4.873236   3.748199
    22  C    2.436799   1.423814   7.069057   7.370248   7.496977
    23  C    6.504776   5.106969   5.696519   2.496722   3.748440
    24  C    6.196893   4.273152   6.492364   3.748475   4.873538
    25  H    6.169080   7.574848   1.087465   4.087132   2.720662
    26  H    7.574573   7.096174   4.630178   1.087428   2.136239
    27  H    7.095975   7.574844   2.720660   2.136431   1.087459
    28  H    4.900084   2.166159   8.529245   7.564725   8.156519
    29  H    2.166402   3.422568   7.245077   8.529144   8.328647
    30  H    4.900354   7.096195   2.136275   5.841484   4.630214
    31  H    2.166174   4.900075   5.841725   8.156151   7.564455
    32  H    6.168795   3.422531   8.328629   6.309193   7.245071
    33  H    7.574410   6.168912   6.308762   2.720761   4.087231
    34  H    3.422713   6.168987   4.087177   7.244565   6.308731
    35  H    3.422805   2.166198   8.156513   8.328593   8.529263
    36  H    7.095702   4.899977   7.564468   4.630506   5.841773
    37  O    2.891614   3.912198   3.276304   4.395651   3.997377
    38  H    3.510135   4.774692   3.266191   4.802259   4.244735
    39  H    3.085486   3.410658   4.116399   4.495713   4.381244
                   16         17         18         19         20
    16  C    0.000000
    17  C    4.873236   0.000000
    18  C    7.068668   3.748475   0.000000
    19  C    1.372142   3.748285   6.492364   0.000000
    20  C    6.492203   2.496722   1.372264   5.696519   0.000000
    21  C    7.496753   5.696795   2.496772   7.370212   3.748524
    22  C    3.748199   1.372234   4.873538   2.496579   3.748440
    23  C    3.748524   7.068741   7.369915   4.873528   7.496595
    24  C    2.496772   6.492262   7.496570   3.748416   7.369915
    25  H    8.328573   7.564725   4.630481   8.529245   5.841796
    26  H    6.309253   8.529144   7.564325   7.245077   8.156167
    27  H    7.564743   8.328593   6.308813   8.156513   7.244753
    28  H    2.136352   4.087132   7.244749   1.087465   6.308832
    29  H    5.841364   1.087428   4.087519   4.630178   2.721022
    30  H    8.529102   6.309193   2.720980   8.328629   4.087481
    31  H    7.244515   2.720761   2.136397   6.308762   1.087413
    32  H    1.087507   5.841484   8.156172   2.136275   7.564362
    33  H    4.630523   8.156151   8.328216   5.841725   8.528839
    34  H    8.156101   4.630506   1.087436   7.564468   2.136430
    35  H    4.087038   2.136431   5.841807   2.720660   4.630507
    36  H    2.720796   7.244565   8.528823   4.087177   8.328217
    37  O    5.133377   4.014252   3.021420   4.970180   3.289761
    38  H    5.991402   4.642281   3.148193   5.826264   3.605981
    39  H    4.445031   3.919922   3.810576   4.316639   3.796249
                   21         22         23         24         25
    21  C    0.000000
    22  C    6.492611   0.000000
    23  C    6.492203   6.492380   0.000000
    24  C    7.068668   5.696511   1.372264   0.000000
    25  H    2.136352   8.156519   6.308832   7.244749   0.000000
    26  H    5.841364   8.328647   2.721022   4.087519   4.786500
    27  H    4.087038   8.529263   4.630507   5.841807   2.491178
    28  H    8.328573   2.720662   5.841796   4.630481   9.573763
    29  H    6.309253   2.136239   8.156167   7.564325   8.291287
    30  H    1.087507   7.245071   7.564362   8.156172   2.464184
    31  H    4.630523   4.087231   8.528839   8.328216   6.759711
    32  H    8.529102   4.630214   4.087481   2.720980   9.251155
    33  H    7.244515   7.564455   1.087413   2.136397   6.779297
    34  H    2.720796   5.841773   8.328217   8.528823   4.786767
    35  H    7.564743   1.087459   7.244753   6.308813   9.243974
    36  H    8.156101   6.308731   2.136430   1.087436   8.290922
    37  O    3.013937   4.411126   4.961015   5.128842   4.273287
    38  H    2.952114   5.157109   5.622063   5.890618   4.133870
    39  H    3.977226   4.047594   4.600428   4.588548   5.088886
                   26         27         28         29         30
    26  H    0.000000
    27  H    2.464152   0.000000
    28  H    8.291287   9.243974   0.000000
    29  H    9.573667   9.251165   4.786500   0.000000
    30  H    6.759297   4.786532   9.251155   6.779901   0.000000
    31  H    9.243576   8.290892   6.779297   2.491574   4.787010
    32  H    6.779901   8.291277   2.464184   6.759297   9.573672
    33  H    2.491574   4.786833   6.759711   9.243576   8.290731
    34  H    8.290675   6.779248   8.290922   4.787100   2.491472
    35  H    9.251165   9.573772   2.491178   2.464152   8.291277
    36  H    4.787100   6.759765   4.786767   8.290675   9.243605
    37  O    5.431162   4.847107   5.907808   4.864643   3.911237
    38  H    5.786242   4.941934   6.726872   5.371980   3.685367
    39  H    5.474271   5.304941   5.235235   4.830723   4.886177
                   31         32         33         34         35
    31  H    0.000000
    32  H    8.290731   0.000000
    33  H    9.573306   4.787010   0.000000
    34  H    2.464373   9.243605   9.250677   0.000000
    35  H    4.786833   4.786532   8.290892   6.759765   0.000000
    36  H    9.250677   2.491472   2.464373   9.573303   6.779248
    37  O    4.287557   6.153417   5.897090   3.916878   5.446911
    38  H    4.508580   6.982613   6.481359   3.843789   6.157683
    39  H    4.731041   5.424837   5.560335   4.751695   5.016188
                   36         37         38         39
    36  H    0.000000
    37  O    6.149540   0.000000
    38  H    6.896417   0.976003   0.000000
    39  H    5.542692   0.976043   1.582057   0.000000
 Stoichiometry    C24H14O
 Framework group  C1[X(C24H14O)]
 Deg. of freedom   111
 Full point group                 C1      NOp   1
 Largest Abelian subgroup         C1      NOp   1
 Largest concise Abelian subgroup C1      NOp   1
                         Standard orientation:                         
 ---------------------------------------------------------------------
 Center     Atomic      Atomic             Coordinates (Angstroms)
 Number     Number       Type             X           Y           Z
 ---------------------------------------------------------------------
      1          6           0        0.679657    1.214366   -0.110066
      2          6           0       -0.746741    1.261081   -0.078636
      3          6           0        1.352324   -0.044623   -0.125579
      4          6           0       -1.500472    0.048808   -0.062720
      5          6           0        0.598593   -1.256895   -0.109663
      6          6           0       -0.827805   -1.210180   -0.078233
      7          6           0        1.430615    2.422001   -0.125924
      8          6           0       -1.416798    2.515274   -0.063183
      9          6           0        2.773340   -0.091181   -0.156890
     10          6           0       -2.921488    0.095366   -0.031409
     11          6           0        1.268650   -2.511089   -0.125116
     12          6           0       -1.578763   -2.417815   -0.062376
     13          6           0        2.851895    2.344269   -0.157258
     14          6           0       -0.638759    3.707703   -0.079645
     15          6           0        0.732406    3.662764   -0.109858
     16          6           0       -3.646584   -1.129903   -0.016130
     17          6           0        0.490611   -3.703517   -0.108654
     18          6           0        3.416580   -1.361341   -0.171762
     19          6           0       -3.000043   -2.340084   -0.031041
     20          6           0        2.692039   -2.526636   -0.156462
     21          6           0        3.498436    1.134089   -0.172169
     22          6           0       -0.880554   -3.658578   -0.078441
     23          6           0       -2.840187    2.530822   -0.031837
     24          6           0       -3.564728    1.365526   -0.016537
     25          1           0        3.423785    3.269135   -0.169331
     26          1           0       -1.153350    4.665594   -0.067781
     27          1           0        1.308879    4.584772   -0.122034
     28          1           0       -3.571933   -3.264949   -0.018968
     29          1           0        1.005202   -4.661408   -0.120519
     30          1           0        4.585007    1.095877   -0.196112
     31          1           0        3.202084   -3.486940   -0.168229
     32          1           0       -4.733155   -1.091692    0.007813
     33          1           0       -3.350232    3.491125   -0.020071
     34          1           0        4.503254   -1.394253   -0.195705
     35          1           0       -1.457027   -4.580586   -0.066265
     36          1           0       -4.651402    1.398439    0.007405
     37          8           0        1.175984   -0.029489    1.356270
     38          1           0        1.818710    0.180161    2.060211
     39          1           0        0.328951   -0.270728    1.776981
 ---------------------------------------------------------------------
 Rotational constants (GHZ):      0.3247313      0.3193404      0.1652449
 Standard basis: 6-31G(d) (6D, 7F)
 There are   403 symmetry adapted basis functions of A   symmetry.
 Integral buffers will be    131072 words long.
 Raffenetti 2 integral format.
 Two-electron integral symmetry is turned on.
   403 basis functions,   756 primitive gaussians,   403 cartesian basis functions
    83 alpha electrons       83 beta electrons
       nuclear repulsion energy      2088.9773386377 Hartrees.
 NAtoms=   39 NActive=   39 NUniq=   39 SFac= 1.00D+00 NAtFMM=   50 NAOKFM=F Big=F
 One-electron integrals computed using PRISM.
 NBasis=   403 RedAO= T  NBF=   403
 NBsUse=   403 1.00D-06 NBFU=   403
 Harris functional with IExCor=  402 diagonalized for initial guess.
 ExpMin= 1.61D-01 ExpMax= 5.48D+03 ExpMxC= 8.25D+02 IAcc=1 IRadAn=         1 AccDes= 0.00D+00
 HarFok:  IExCor=  402 AccDes= 0.00D+00 IRadAn=         1 IDoV= 1
 ScaDFX=  1.000000  1.000000  1.000000  1.000000
 FoFCou: FMM=F IPFlag=           0 FMFlag=      100000 FMFlg1=           0
         NFxFlg=           0 DoJE=T BraDBF=F KetDBF=T FulRan=T
         Omega=  0.000000  0.000000  1.000000  0.000000  0.000000 ICntrl=     500 IOpCl=  0
         NMat0=    1 NMatS0=    1 NMatT0=    0 NMatD0=    1 NMtDS0=    0 NMtDT0=    0
         I1Cent=           4 NGrid=           0.
 Petite list used in FoFCou.
 Initial guess orbital symmetries:
       Occupied  (A) (A) (A) (A) (A) (A) (A) (A) (A) (A) (A) (A)
                 (A) (A) (A) (A) (A) (A) (A) (A) (A) (A) (A) (A)
                 (A) (A) (A) (A) (A) (A) (A) (A) (A) (A) (A) (A)
                 (A) (A) (A) (A) (A) (A) (A) (A) (A) (A) (A) (A)
                 (A) (A) (A) (A) (A) (A) (A) (A) (A) (A) (A) (A)
                 (A) (A) (A) (A) (A) (A) (A) (A) (A) (A) (A) (A)
                 (A) (A) (A) (A) (A) (A) (A) (A) (A) (A) (A)
       Virtual   (A) (A) (A) (A) (A) (A) (A) (A) (A) (A) (A) (A)
                 (A) (A) (A) (A) (A) (A) (A) (A) (A) (A) (A) (A)
                 (A) (A) (A) (A) (A) (A) (A) (A) (A) (A) (A) (A)
                 (A) (A) (A) (A) (A) (A) (A) (A) (A) (A) (A) (A)
                 (A) (A) (A) (A) (A) (A) (A) (A) (A) (A) (A) (A)
                 (A) (A) (A) (A) (A) (A) (A) (A) (A) (A) (A) (A)
                 (A) (A) (A) (A) (A) (A) (A) (A) (A) (A) (A) (A)
                 (A) (A) (A) (A) (A) (A) (A) (A) (A) (A) (A) (A)
                 (A) (A) (A) (A) (A) (A) (A) (A) (A) (A) (A) (A)
                 (A) (A) (A) (A) (A) (A) (A) (A) (A) (A) (A) (A)
                 (A) (A) (A) (A) (A) (A) (A) (A) (A) (A) (A) (A)
                 (A) (A) (A) (A) (A) (A) (A) (A) (A) (A) (A) (A)
                 (A) (A) (A) (A) (A) (A) (A) (A) (A) (A) (A) (A)
                 (A) (A) (A) (A) (A) (A) (A) (A) (A) (A) (A) (A)
                 (A) (A) (A) (A) (A) (A) (A) (A) (A) (A) (A) (A)
                 (A) (A) (A) (A) (A) (A) (A) (A) (A) (A) (A) (A)
                 (A) (A) (A) (A) (A) (A) (A) (A) (A) (A) (A) (A)
                 (A) (A) (A) (A) (A) (A) (A) (A) (A) (A) (A) (A)
                 (A) (A) (A) (A) (A) (A) (A) (A) (A) (A) (A) (A)
                 (A) (A) (A) (A) (A) (A) (A) (A) (A) (A) (A) (A)
                 (A) (A) (A) (A) (A) (A) (A) (A) (A) (A) (A) (A)
                 (A) (A) (A) (A) (A) (A) (A) (A) (A) (A) (A) (A)
                 (A) (A) (A) (A) (A) (A) (A) (A) (A) (A) (A) (A)
                 (A) (A) (A) (A) (A) (A) (A) (A) (A) (A) (A) (A)
                 (A) (A) (A) (A) (A) (A) (A) (A) (A) (A) (A) (A)
                 (A) (A) (A) (A) (A) (A) (A) (A) (A) (A) (A) (A)
                 (A) (A) (A) (A) (A) (A) (A) (A)
 The electronic state of the initial guess is 1-A.
 Requested convergence on RMS density matrix=1.00D-08 within  64 cycles.
 Requested convergence on MAX density matrix=1.00D-06.
 Requested convergence on             energy=1.00D-06.
 No special actions if energy rises.
 Integral accuracy reduced to 1.0D-05 until final iterations.
 Initial convergence to 1.0D-05 achieved.  Increase integral accuracy.
 SCF Done:  E(RB3LYP) =  -998.094742423     A.U. after   16 cycles
             Convg  =    0.5114D-08             -V/T =  2.0083
 QCSCF skips out because SCF is already converged.

 **********************************************************************

            Population analysis using the SCF density.

 **********************************************************************

 Orbital symmetries:
       Occupied  (A) (A) (A) (A) (A) (A) (A) (A) (A) (A) (A) (A)
                 (A) (A) (A) (A) (A) (A) (A) (A) (A) (A) (A) (A)
                 (A) (A) (A) (A) (A) (A) (A) (A) (A) (A) (A) (A)
                 (A) (A) (A) (A) (A) (A) (A) (A) (A) (A) (A) (A)
                 (A) (A) (A) (A) (A) (A) (A) (A) (A) (A) (A) (A)
                 (A) (A) (A) (A) (A) (A) (A) (A) (A) (A) (A) (A)
                 (A) (A) (A) (A) (A) (A) (A) (A) (A) (A) (A)
       Virtual   (A) (A) (A) (A) (A) (A) (A) (A) (A) (A) (A) (A)
                 (A) (A) (A) (A) (A) (A) (A) (A) (A) (A) (A) (A)
                 (A) (A) (A) (A) (A) (A) (A) (A) (A) (A) (A) (A)
                 (A) (A) (A) (A) (A) (A) (A) (A) (A) (A) (A) (A)
                 (A) (A) (A) (A) (A) (A) (A) (A) (A) (A) (A) (A)
                 (A) (A) (A) (A) (A) (A) (A) (A) (A) (A) (A) (A)
                 (A) (A) (A) (A) (A) (A) (A) (A) (A) (A) (A) (A)
                 (A) (A) (A) (A) (A) (A) (A) (A) (A) (A) (A) (A)
                 (A) (A) (A) (A) (A) (A) (A) (A) (A) (A) (A) (A)
                 (A) (A) (A) (A) (A) (A) (A) (A) (A) (A) (A) (A)
                 (A) (A) (A) (A) (A) (A) (A) (A) (A) (A) (A) (A)
                 (A) (A) (A) (A) (A) (A) (A) (A) (A) (A) (A) (A)
                 (A) (A) (A) (A) (A) (A) (A) (A) (A) (A) (A) (A)
                 (A) (A) (A) (A) (A) (A) (A) (A) (A) (A) (A) (A)
                 (A) (A) (A) (A) (A) (A) (A) (A) (A) (A) (A) (A)
                 (A) (A) (A) (A) (A) (A) (A) (A) (A) (A) (A) (A)
                 (A) (A) (A) (A) (A) (A) (A) (A) (A) (A) (A) (A)
                 (A) (A) (A) (A) (A) (A) (A) (A) (A) (A) (A) (A)
                 (A) (A) (A) (A) (A) (A) (A) (A) (A) (A) (A) (A)
                 (A) (A) (A) (A) (A) (A) (A) (A) (A) (A) (A) (A)
                 (A) (A) (A) (A) (A) (A) (A) (A) (A) (A) (A) (A)
                 (A) (A) (A) (A) (A) (A) (A) (A) (A) (A) (A) (A)
                 (A) (A) (A) (A) (A) (A) (A) (A) (A) (A) (A) (A)
                 (A) (A) (A) (A) (A) (A) (A) (A) (A) (A) (A) (A)
                 (A) (A) (A) (A) (A) (A) (A) (A) (A) (A) (A) (A)
                 (A) (A) (A) (A) (A) (A) (A) (A) (A) (A) (A) (A)
                 (A) (A) (A) (A) (A) (A) (A) (A)
 The electronic state is 1-A.
 Alpha  occ. eigenvalues --  -19.23868 -10.24808 -10.19470 -10.19401 -10.19348
 Alpha  occ. eigenvalues --  -10.19177 -10.19081 -10.19056 -10.18885 -10.18811
 Alpha  occ. eigenvalues --  -10.18741 -10.18686 -10.18686 -10.18679 -10.18632
 Alpha  occ. eigenvalues --  -10.18623 -10.18614 -10.18574 -10.18429 -10.18272
 Alpha  occ. eigenvalues --  -10.18189 -10.18067 -10.17288 -10.16697 -10.16579
 Alpha  occ. eigenvalues --   -1.15266  -0.90009  -0.86484  -0.85985  -0.81458
 Alpha  occ. eigenvalues --   -0.81133  -0.80582  -0.76316  -0.75605  -0.74897
 Alpha  occ. eigenvalues --   -0.73946  -0.70407  -0.70030  -0.65836  -0.64130
 Alpha  occ. eigenvalues --   -0.63415  -0.62172  -0.62092  -0.59842  -0.57091
 Alpha  occ. eigenvalues --   -0.55233  -0.54342  -0.53479  -0.52708  -0.51840
 Alpha  occ. eigenvalues --   -0.50182  -0.47142  -0.46304  -0.46168  -0.44878
 Alpha  occ. eigenvalues --   -0.44709  -0.44394  -0.42841  -0.41790  -0.41305
 Alpha  occ. eigenvalues --   -0.41062  -0.40297  -0.39875  -0.39020  -0.38889
 Alpha  occ. eigenvalues --   -0.36554  -0.36449  -0.35953  -0.35296  -0.34873
 Alpha  occ. eigenvalues --   -0.34733  -0.34613  -0.31614  -0.31398  -0.30900
 Alpha  occ. eigenvalues --   -0.30577  -0.29075  -0.25778  -0.25705  -0.23354
 Alpha  occ. eigenvalues --   -0.20290  -0.19160  -0.15804
 Alpha virt. eigenvalues --   -0.04461  -0.04189   0.00023   0.01218   0.01570
 Alpha virt. eigenvalues --    0.03064   0.04853   0.07304   0.09345   0.10087
 Alpha virt. eigenvalues --    0.10429   0.11366   0.11409   0.11528   0.13211
 Alpha virt. eigenvalues --    0.13245   0.15376   0.15480   0.17074   0.17293
 Alpha virt. eigenvalues --    0.19039   0.19096   0.19233   0.19448   0.21471
 Alpha virt. eigenvalues --    0.21600   0.25883   0.26090   0.26142   0.27261
 Alpha virt. eigenvalues --    0.27388   0.27648   0.28953   0.29176   0.29731
 Alpha virt. eigenvalues --    0.29767   0.30792   0.34094   0.34148   0.35483
 Alpha virt. eigenvalues --    0.36641   0.36848   0.42428   0.43158   0.45980
 Alpha virt. eigenvalues --    0.46415   0.46887   0.47361   0.48733   0.50412
 Alpha virt. eigenvalues --    0.50561   0.51881   0.52321   0.52588   0.53174
 Alpha virt. eigenvalues --    0.53886   0.55035   0.55258   0.55387   0.55743
 Alpha virt. eigenvalues --    0.56026   0.56500   0.57244   0.57501   0.58023
 Alpha virt. eigenvalues --    0.58435   0.59024   0.59218   0.59415   0.60217
 Alpha virt. eigenvalues --    0.60295   0.60349   0.60470   0.60538   0.61192
 Alpha virt. eigenvalues --    0.61639   0.62381   0.62467   0.62586   0.63533
 Alpha virt. eigenvalues --    0.64323   0.64372   0.64641   0.64722   0.67363
 Alpha virt. eigenvalues --    0.69476   0.69833   0.70852   0.71347   0.72020
 Alpha virt. eigenvalues --    0.72346   0.73330   0.75910   0.77250   0.79636
 Alpha virt. eigenvalues --    0.81704   0.81969   0.82496   0.83276   0.83330
 Alpha virt. eigenvalues --    0.83505   0.83936   0.84971   0.85770   0.85894
 Alpha virt. eigenvalues --    0.86122   0.86305   0.86612   0.86966   0.87238
 Alpha virt. eigenvalues --    0.87878   0.89152   0.91822   0.92527   0.93841
 Alpha virt. eigenvalues --    0.94662   0.95065   0.95352   0.96408   0.97443
 Alpha virt. eigenvalues --    0.98898   0.99509   0.99933   1.00879   1.01995
 Alpha virt. eigenvalues --    1.02658   1.03061   1.03896   1.04468   1.05735
 Alpha virt. eigenvalues --    1.07045   1.11057   1.11488   1.14113   1.15884
 Alpha virt. eigenvalues --    1.16542   1.16854   1.17088   1.18165   1.18591
 Alpha virt. eigenvalues --    1.19083   1.22881   1.24230   1.25118   1.25869
 Alpha virt. eigenvalues --    1.26518   1.27282   1.27455   1.27738   1.30673
 Alpha virt. eigenvalues --    1.31025   1.32168   1.32435   1.36452   1.38882
 Alpha virt. eigenvalues --    1.39287   1.40884   1.41518   1.42249   1.43181
 Alpha virt. eigenvalues --    1.43412   1.44723   1.46206   1.46821   1.48192
 Alpha virt. eigenvalues --    1.48349   1.48833   1.49335   1.50485   1.50936
 Alpha virt. eigenvalues --    1.51453   1.52624   1.53064   1.55004   1.58441
 Alpha virt. eigenvalues --    1.59700   1.61652   1.64008   1.65632   1.67688
 Alpha virt. eigenvalues --    1.68815   1.70407   1.71313   1.73390   1.75222
 Alpha virt. eigenvalues --    1.77818   1.78189   1.79478   1.80224   1.80555
 Alpha virt. eigenvalues --    1.82314   1.83683   1.84395   1.84576   1.86784
 Alpha virt. eigenvalues --    1.87838   1.88686   1.89731   1.92088   1.92317
 Alpha virt. eigenvalues --    1.93568   1.94491   1.94824   1.95132   1.95481
 Alpha virt. eigenvalues --    1.96394   1.96547   1.97365   1.99405   1.99755
 Alpha virt. eigenvalues --    2.01197   2.01831   2.02268   2.02789   2.03465
 Alpha virt. eigenvalues --    2.06022   2.07117   2.07858   2.09511   2.13672
 Alpha virt. eigenvalues --    2.15392   2.15806   2.16230   2.18255   2.20703
 Alpha virt. eigenvalues --    2.23659   2.24642   2.26037   2.26718   2.26980
 Alpha virt. eigenvalues --    2.27122   2.27498   2.27707   2.29411   2.30524
 Alpha virt. eigenvalues --    2.30979   2.31717   2.33843   2.34436   2.34499
 Alpha virt. eigenvalues --    2.35013   2.35787   2.36512   2.36623   2.38946
 Alpha virt. eigenvalues --    2.41103   2.41706   2.41995   2.42934   2.46519
 Alpha virt. eigenvalues --    2.49999   2.51075   2.55522   2.55814   2.57220
 Alpha virt. eigenvalues --    2.58478   2.59572   2.62675   2.62980   2.64071
 Alpha virt. eigenvalues --    2.66470   2.68986   2.71443   2.72188   2.72370
 Alpha virt. eigenvalues --    2.72626   2.74444   2.75250   2.79782   2.80264
 Alpha virt. eigenvalues --    2.82540   2.83949   2.83993   2.84590   2.85773
 Alpha virt. eigenvalues --    2.86779   2.87890   2.89229   2.92241   2.95850
 Alpha virt. eigenvalues --    2.98490   3.00359   3.01654   3.03640   3.05504
 Alpha virt. eigenvalues --    3.07569   3.11527   3.15128   3.31722   3.32009
 Alpha virt. eigenvalues --    3.35013   3.41487   3.42756   3.57099   3.64939
 Alpha virt. eigenvalues --    3.95785   4.09185   4.09732   4.11085   4.11937
 Alpha virt. eigenvalues --    4.13604   4.14313   4.16829   4.16979   4.18426
 Alpha virt. eigenvalues --    4.19859   4.20826   4.28367   4.28478   4.34234
 Alpha virt. eigenvalues --    4.35633   4.41106   4.43879   4.49230   4.54769
 Alpha virt. eigenvalues --    4.57095   4.73366   4.78253   4.79780   5.03445
          Condensed to atoms (all electrons):
              1          2          3          4          5          6
     1  C    5.626752   0.226562   0.184174  -0.020548  -0.001107  -0.100189
     2  C    0.226562   5.410137  -0.009937   0.207570  -0.099516  -0.014997
     3  C    0.184174  -0.009937   5.825927  -0.102943   0.173772  -0.013847
     4  C   -0.020548   0.207570  -0.102943   5.482351  -0.026249   0.201844
     5  C   -0.001107  -0.099516   0.173772  -0.026249   5.685469   0.213718
     6  C   -0.100189  -0.014997  -0.013847   0.201844   0.213718   5.455845
     7  C    0.470265  -0.046314  -0.050352   0.013665   0.013955  -0.000907
     8  C   -0.056874   0.441377   0.016186  -0.051482  -0.000971   0.014655
     9  C   -0.059997   0.014352   0.420931  -0.001094  -0.065843   0.014259
    10  C    0.015195  -0.053093  -0.001408   0.450257   0.015564  -0.053840
    11  C    0.014645  -0.001387  -0.054107   0.013877   0.477657  -0.052368
    12  C   -0.001211   0.015155   0.016295  -0.050163  -0.064733   0.439211
    13  C    0.006458   0.018242  -0.094316  -0.000077  -0.002659  -0.000016
    14  C   -0.086167   0.009143  -0.002384   0.018510  -0.000015  -0.000124
    15  C    0.009986  -0.085703   0.020553  -0.002312  -0.000147   0.000005
    16  C   -0.000150   0.018551   0.000019   0.009035  -0.002383  -0.084847
    17  C   -0.000157   0.000018   0.020450  -0.002321   0.008750  -0.085650
    18  C    0.019302  -0.000117   0.016369  -0.000005  -0.090162  -0.002770
    19  C    0.000013  -0.002363  -0.000211  -0.084639   0.019361   0.013032
    20  C   -0.002636   0.000000  -0.092835  -0.000096   0.005370   0.018445
    21  C   -0.091372  -0.002590   0.016197  -0.000025   0.018924  -0.000061
    22  C   -0.000013  -0.000122  -0.002314   0.018525  -0.086130   0.008132
    23  C    0.019144   0.012286  -0.000185  -0.084761   0.000006  -0.002306
    24  C   -0.002303  -0.083722   0.000014   0.008526  -0.000152   0.018565
    25  H    0.004098  -0.000250   0.001375   0.000003   0.000030  -0.000001
    26  H    0.001439   0.003411   0.000029  -0.000242  -0.000001   0.000003
    27  H    0.003664   0.001470  -0.000269   0.000030   0.000003  -0.000001
    28  H   -0.000001   0.000029   0.000003   0.001397  -0.000238   0.003373
    29  H    0.000003  -0.000001  -0.000262   0.000030   0.003756   0.001452
    30  H    0.001433   0.000028   0.004029  -0.000001  -0.000242   0.000002
    31  H    0.000030  -0.000001   0.001417   0.000002   0.004163  -0.000254
    32  H    0.000003  -0.000239  -0.000001   0.003398   0.000029   0.001403
    33  H   -0.000239   0.003312   0.000003   0.001412  -0.000001   0.000029
    34  H   -0.000251   0.000002   0.004024  -0.000001   0.001488   0.000028
    35  H   -0.000001   0.000003   0.000029  -0.000242   0.001436   0.003450
    36  H    0.000029   0.001407  -0.000001   0.003384   0.000003  -0.000241
    37  O   -0.284983   0.008483  -0.314255   0.005086  -0.239867  -0.002200
    38  H    0.020115  -0.001701   0.061096  -0.001211   0.022454  -0.000615
    39  H    0.008868   0.008043   0.038651  -0.002998   0.007887   0.015687
              7          8          9         10         11         12
     1  C    0.470265  -0.056874  -0.059997   0.015195   0.014645  -0.001211
     2  C   -0.046314   0.441377   0.014352  -0.053093  -0.001387   0.015155
     3  C   -0.050352   0.016186   0.420931  -0.001408  -0.054107   0.016295
     4  C    0.013665  -0.051482  -0.001094   0.450257   0.013877  -0.050163
     5  C    0.013955  -0.000971  -0.065843   0.015564   0.477657  -0.064733
     6  C   -0.000907   0.014655   0.014259  -0.053840  -0.052368   0.439211
     7  C    4.756701  -0.045587  -0.043322  -0.000063  -0.000106   0.000001
     8  C   -0.045587   4.805347  -0.000113  -0.045605  -0.000002  -0.000071
     9  C   -0.043322  -0.000113   4.917541  -0.000004  -0.042761  -0.000095
    10  C   -0.000063  -0.045605  -0.000004   4.794601  -0.000045  -0.046077
    11  C   -0.000106  -0.000002  -0.042761  -0.000045   4.737794  -0.045917
    12  C    0.000001  -0.000071  -0.000095  -0.046077  -0.045917   4.815211
    13  C    0.403962  -0.000396   0.005266  -0.000001   0.000065   0.000000
    14  C    0.013234   0.414065   0.000069  -0.000468   0.000000  -0.000001
    15  C    0.409144   0.016052  -0.000402   0.000070  -0.000001   0.000000
    16  C   -0.000001  -0.000436   0.000000   0.407355   0.000064   0.014333
    17  C   -0.000002   0.000000  -0.000425   0.000068   0.407741   0.015727
    18  C   -0.000679  -0.000002   0.429524   0.000000   0.019781   0.000079
    19  C    0.000000   0.000070  -0.000001   0.015615  -0.000309   0.406477
    20  C    0.000062   0.000000   0.005607  -0.000001   0.411200  -0.000381
    21  C    0.018676   0.000086   0.418234   0.000000  -0.000633  -0.000001
    22  C    0.000000  -0.000001   0.000070  -0.000498   0.013901   0.414242
    23  C   -0.000357   0.405749  -0.000001   0.015487   0.000000   0.000069
    24  C    0.000067   0.013996   0.000000   0.408162  -0.000001  -0.000418
    25  H   -0.036963   0.000014   0.002216   0.000000   0.000000   0.000000
    26  H    0.001758  -0.036417   0.000000   0.000013   0.000000   0.000000
    27  H   -0.034167   0.001734   0.000017   0.000000   0.000000   0.000000
    28  H    0.000000   0.000000   0.000000   0.001758   0.000012  -0.035928
    29  H    0.000000   0.000000   0.000018   0.000000  -0.033795   0.001746
    30  H    0.001997   0.000000  -0.038335   0.000000   0.000019   0.000000
    31  H    0.000000   0.000000   0.002143   0.000000  -0.036928   0.000015
    32  H    0.000000   0.000013   0.000000  -0.035863   0.000000   0.001794
    33  H    0.000012  -0.035669   0.000000   0.001751   0.000000   0.000000
    34  H    0.000023   0.000000  -0.037920   0.000000   0.001896   0.000000
    35  H    0.000000   0.000000   0.000000   0.000014   0.001727  -0.036165
    36  H    0.000000   0.001771   0.000000  -0.036036   0.000000   0.000012
    37  O    0.000995  -0.000882  -0.106562  -0.000117   0.005171  -0.001024
    38  H    0.003574   0.000041   0.011428  -0.000003   0.001386   0.000040
    39  H   -0.001488  -0.000102   0.012346  -0.000401  -0.001949  -0.000836
             13         14         15         16         17         18
     1  C    0.006458  -0.086167   0.009986  -0.000150  -0.000157   0.019302
     2  C    0.018242   0.009143  -0.085703   0.018551   0.000018  -0.000117
     3  C   -0.094316  -0.002384   0.020553   0.000019   0.020450   0.016369
     4  C   -0.000077   0.018510  -0.002312   0.009035  -0.002321  -0.000005
     5  C   -0.002659  -0.000015  -0.000147  -0.002383   0.008750  -0.090162
     6  C   -0.000016  -0.000124   0.000005  -0.084847  -0.085650  -0.002770
     7  C    0.403962   0.013234   0.409144  -0.000001  -0.000002  -0.000679
     8  C   -0.000396   0.414065   0.016052  -0.000436   0.000000  -0.000002
     9  C    0.005266   0.000069  -0.000402   0.000000  -0.000425   0.429524
    10  C   -0.000001  -0.000468   0.000070   0.407355   0.000068   0.000000
    11  C    0.000065   0.000000  -0.000001   0.000064   0.407741   0.019781
    12  C    0.000000  -0.000001   0.000000   0.014333   0.015727   0.000079
    13  C    5.258250   0.009220  -0.102638   0.000000   0.000001   0.009232
    14  C    0.009220   5.200939   0.428717  -0.000013   0.000000   0.000001
    15  C   -0.102638   0.428717   5.199990   0.000001   0.000000  -0.000015
    16  C    0.000000  -0.000013   0.000001   5.201354  -0.000423   0.000000
    17  C    0.000001   0.000000   0.000000  -0.000423   5.205505   0.009535
    18  C    0.009232   0.000001  -0.000015   0.000000   0.009535   5.161816
    19  C    0.000000   0.000001   0.000000   0.430756   0.008923   0.000001
    20  C   -0.000365   0.000000   0.000001   0.000001  -0.102762   0.427280
    21  C    0.429466  -0.000437   0.009465   0.000000  -0.000015  -0.099436
    22  C    0.000000   0.000000   0.000000   0.009121   0.427503  -0.000437
    23  C   -0.000013  -0.103141   0.008964   0.009039   0.000000   0.000000
    24  C    0.000001   0.009051  -0.000426  -0.101727   0.000001   0.000000
    25  H    0.351029   0.000190  -0.008045   0.000000   0.000000  -0.000209
    26  H   -0.000208   0.349839  -0.038157   0.000000   0.000000   0.000000
    27  H   -0.007163  -0.039649   0.348836   0.000000   0.000000   0.000000
    28  H    0.000000   0.000000   0.000000  -0.038026   0.000192   0.000000
    29  H    0.000000   0.000000   0.000000   0.000003   0.349211   0.000153
    30  H   -0.038166   0.000003  -0.000199   0.000000   0.000000  -0.007479
    31  H    0.000003   0.000000   0.000000   0.000000  -0.007973  -0.039090
    32  H    0.000000   0.000000   0.000000   0.350169   0.000003   0.000000
    33  H    0.000000  -0.007018   0.000190  -0.000207   0.000000   0.000000
    34  H    0.000166   0.000000   0.000000   0.000000  -0.000200   0.350363
    35  H    0.000000   0.000000   0.000000   0.000186  -0.038055   0.000003
    36  H    0.000000  -0.000207   0.000003  -0.007096   0.000000   0.000000
    37  O    0.006585   0.000317  -0.000770   0.000000  -0.000501   0.004306
    38  H   -0.006104  -0.000023   0.000168   0.000001   0.000103  -0.000746
    39  H   -0.000649   0.000029   0.000073   0.000016  -0.000042   0.000117
             19         20         21         22         23         24
     1  C    0.000013  -0.002636  -0.091372  -0.000013   0.019144  -0.002303
     2  C   -0.002363   0.000000  -0.002590  -0.000122   0.012286  -0.083722
     3  C   -0.000211  -0.092835   0.016197  -0.002314  -0.000185   0.000014
     4  C   -0.084639  -0.000096  -0.000025   0.018525  -0.084761   0.008526
     5  C    0.019361   0.005370   0.018924  -0.086130   0.000006  -0.000152
     6  C    0.013032   0.018445  -0.000061   0.008132  -0.002306   0.018565
     7  C    0.000000   0.000062   0.018676   0.000000  -0.000357   0.000067
     8  C    0.000070   0.000000   0.000086  -0.000001   0.405749   0.013996
     9  C   -0.000001   0.005607   0.418234   0.000070  -0.000001   0.000000
    10  C    0.015615  -0.000001   0.000000  -0.000498   0.015487   0.408162
    11  C   -0.000309   0.411200  -0.000633   0.013901   0.000000  -0.000001
    12  C    0.406477  -0.000381  -0.000001   0.414242   0.000069  -0.000418
    13  C    0.000000  -0.000365   0.429466   0.000000  -0.000013   0.000001
    14  C    0.000001   0.000000  -0.000437   0.000000  -0.103141   0.009051
    15  C    0.000000   0.000001   0.009465   0.000000   0.008964  -0.000426
    16  C    0.430756   0.000001   0.000000   0.009121   0.009039  -0.101727
    17  C    0.008923  -0.102762  -0.000015   0.427503   0.000000   0.000001
    18  C    0.000001   0.427280  -0.099436  -0.000437   0.000000   0.000000
    19  C    5.194046  -0.000013   0.000000  -0.103026  -0.000430   0.009046
    20  C   -0.000013   5.249491   0.009209   0.009189   0.000000   0.000000
    21  C    0.000000   0.009209   5.177303   0.000001   0.000001   0.000000
    22  C   -0.103026   0.009189   0.000001   5.199278   0.000001  -0.000013
    23  C   -0.000430   0.000000   0.000001   0.000001   5.194978   0.431109
    24  C    0.009046   0.000000   0.000000  -0.000013   0.431109   5.200132
    25  H    0.000000   0.000003  -0.039123   0.000000   0.000000   0.000000
    26  H    0.000000   0.000000   0.000003   0.000000  -0.007091   0.000190
    27  H    0.000000   0.000000   0.000162   0.000000  -0.000208   0.000003
    28  H    0.350215   0.000000   0.000000  -0.007028   0.000003  -0.000206
    29  H   -0.000207  -0.007212   0.000000  -0.039729   0.000000   0.000000
    30  H    0.000000   0.000175   0.351043   0.000000   0.000000   0.000000
    31  H    0.000000   0.350508  -0.000210   0.000188   0.000000   0.000000
    32  H   -0.038269   0.000000   0.000000  -0.000207   0.000186  -0.007103
    33  H    0.000003   0.000000   0.000000   0.000000   0.350057  -0.038251
    34  H    0.000000  -0.038265  -0.007319   0.000003   0.000000   0.000000
    35  H   -0.007060  -0.000206   0.000000   0.350023   0.000000   0.000000
    36  H    0.000189   0.000000   0.000000   0.000000  -0.038169   0.350135
    37  O    0.000004   0.006411   0.002956   0.000175  -0.000004   0.000000
    38  H   -0.000001  -0.003555   0.003677  -0.000016   0.000000   0.000001
    39  H   -0.000130  -0.001446  -0.000274   0.000184  -0.000073   0.000044
             25         26         27         28         29         30
     1  C    0.004098   0.001439   0.003664  -0.000001   0.000003   0.001433
     2  C   -0.000250   0.003411   0.001470   0.000029  -0.000001   0.000028
     3  C    0.001375   0.000029  -0.000269   0.000003  -0.000262   0.004029
     4  C    0.000003  -0.000242   0.000030   0.001397   0.000030  -0.000001
     5  C    0.000030  -0.000001   0.000003  -0.000238   0.003756  -0.000242
     6  C   -0.000001   0.000003  -0.000001   0.003373   0.001452   0.000002
     7  C   -0.036963   0.001758  -0.034167   0.000000   0.000000   0.001997
     8  C    0.000014  -0.036417   0.001734   0.000000   0.000000   0.000000
     9  C    0.002216   0.000000   0.000017   0.000000   0.000018  -0.038335
    10  C    0.000000   0.000013   0.000000   0.001758   0.000000   0.000000
    11  C    0.000000   0.000000   0.000000   0.000012  -0.033795   0.000019
    12  C    0.000000   0.000000   0.000000  -0.035928   0.001746   0.000000
    13  C    0.351029  -0.000208  -0.007163   0.000000   0.000000  -0.038166
    14  C    0.000190   0.349839  -0.039649   0.000000   0.000000   0.000003
    15  C   -0.008045  -0.038157   0.348836   0.000000   0.000000  -0.000199
    16  C    0.000000   0.000000   0.000000  -0.038026   0.000003   0.000000
    17  C    0.000000   0.000000   0.000000   0.000192   0.349211   0.000000
    18  C   -0.000209   0.000000   0.000000   0.000000   0.000153  -0.007479
    19  C    0.000000   0.000000   0.000000   0.350215  -0.000207   0.000000
    20  C    0.000003   0.000000   0.000000   0.000000  -0.007212   0.000175
    21  C   -0.039123   0.000003   0.000162   0.000000   0.000000   0.351043
    22  C    0.000000   0.000000   0.000000  -0.007028  -0.039729   0.000000
    23  C    0.000000  -0.007091  -0.000208   0.000003   0.000000   0.000000
    24  C    0.000000   0.000190   0.000003  -0.000206   0.000000   0.000000
    25  H    0.612298  -0.000011   0.006757   0.000000   0.000000  -0.005018
    26  H   -0.000011   0.600083  -0.004515   0.000000   0.000000   0.000000
    27  H    0.006757  -0.004515   0.596898   0.000000   0.000000  -0.000013
    28  H    0.000000   0.000000   0.000000   0.595198  -0.000011   0.000000
    29  H    0.000000   0.000000   0.000000  -0.000011   0.594561   0.000000
    30  H   -0.005018   0.000000  -0.000013   0.000000   0.000000   0.602367
    31  H    0.000000   0.000000   0.000000   0.000000   0.006750  -0.000012
    32  H    0.000000   0.000000   0.000000  -0.004540   0.000000   0.000000
    33  H    0.000000   0.006618  -0.000011   0.000000   0.000000   0.000000
    34  H   -0.000012   0.000000   0.000000   0.000000  -0.000013   0.006445
    35  H    0.000000   0.000000   0.000000   0.006587  -0.004474   0.000000
    36  H    0.000000  -0.000011   0.000000  -0.000011   0.000000   0.000000
    37  O   -0.000025   0.000000   0.000002   0.000000   0.000001  -0.000078
    38  H    0.000000   0.000000  -0.000005   0.000000  -0.000002  -0.000004
    39  H    0.000001   0.000000  -0.000001   0.000000  -0.000001   0.000017
             31         32         33         34         35         36
     1  C    0.000030   0.000003  -0.000239  -0.000251  -0.000001   0.000029
     2  C   -0.000001  -0.000239   0.003312   0.000002   0.000003   0.001407
     3  C    0.001417  -0.000001   0.000003   0.004024   0.000029  -0.000001
     4  C    0.000002   0.003398   0.001412  -0.000001  -0.000242   0.003384
     5  C    0.004163   0.000029  -0.000001   0.001488   0.001436   0.000003
     6  C   -0.000254   0.001403   0.000029   0.000028   0.003450  -0.000241
     7  C    0.000000   0.000000   0.000012   0.000023   0.000000   0.000000
     8  C    0.000000   0.000013  -0.035669   0.000000   0.000000   0.001771
     9  C    0.002143   0.000000   0.000000  -0.037920   0.000000   0.000000
    10  C    0.000000  -0.035863   0.001751   0.000000   0.000014  -0.036036
    11  C   -0.036928   0.000000   0.000000   0.001896   0.001727   0.000000
    12  C    0.000015   0.001794   0.000000   0.000000  -0.036165   0.000012
    13  C    0.000003   0.000000   0.000000   0.000166   0.000000   0.000000
    14  C    0.000000   0.000000  -0.007018   0.000000   0.000000  -0.000207
    15  C    0.000000   0.000000   0.000190   0.000000   0.000000   0.000003
    16  C    0.000000   0.350169  -0.000207   0.000000   0.000186  -0.007096
    17  C   -0.007973   0.000003   0.000000  -0.000200  -0.038055   0.000000
    18  C   -0.039090   0.000000   0.000000   0.350363   0.000003   0.000000
    19  C    0.000000  -0.038269   0.000003   0.000000  -0.007060   0.000189
    20  C    0.350508   0.000000   0.000000  -0.038265  -0.000206   0.000000
    21  C   -0.000210   0.000000   0.000000  -0.007319   0.000000   0.000000
    22  C    0.000188  -0.000207   0.000000   0.000003   0.350023   0.000000
    23  C    0.000000   0.000186   0.350057   0.000000   0.000000  -0.038169
    24  C    0.000000  -0.007103  -0.038251   0.000000   0.000000   0.350135
    25  H    0.000000   0.000000   0.000000  -0.000012   0.000000   0.000000
    26  H    0.000000   0.000000   0.006618   0.000000   0.000000  -0.000011
    27  H    0.000000   0.000000  -0.000011   0.000000   0.000000   0.000000
    28  H    0.000000  -0.004540   0.000000   0.000000   0.006587  -0.000011
    29  H    0.006750   0.000000   0.000000  -0.000013  -0.004474   0.000000
    30  H   -0.000012   0.000000   0.000000   0.006445   0.000000   0.000000
    31  H    0.612020   0.000000   0.000000  -0.004914  -0.000011   0.000000
    32  H    0.000000   0.596570  -0.000011   0.000000  -0.000011   0.006641
    33  H    0.000000  -0.000011   0.595331   0.000000   0.000000  -0.004526
    34  H   -0.004914   0.000000   0.000000   0.601707   0.000000   0.000000
    35  H   -0.000011  -0.000011   0.000000   0.000000   0.597133   0.000000
    36  H    0.000000   0.006641  -0.004526   0.000000   0.000000   0.597081
    37  O   -0.000029   0.000000   0.000000  -0.000087   0.000000   0.000000
    38  H   -0.000002   0.000000   0.000000   0.000002   0.000000   0.000000
    39  H    0.000002   0.000000   0.000000   0.000024  -0.000001   0.000000
             37         38         39
     1  C   -0.284983   0.020115   0.008868
     2  C    0.008483  -0.001701   0.008043
     3  C   -0.314255   0.061096   0.038651
     4  C    0.005086  -0.001211  -0.002998
     5  C   -0.239867   0.022454   0.007887
     6  C   -0.002200  -0.000615   0.015687
     7  C    0.000995   0.003574  -0.001488
     8  C   -0.000882   0.000041  -0.000102
     9  C   -0.106562   0.011428   0.012346
    10  C   -0.000117  -0.000003  -0.000401
    11  C    0.005171   0.001386  -0.001949
    12  C   -0.001024   0.000040  -0.000836
    13  C    0.006585  -0.006104  -0.000649
    14  C    0.000317  -0.000023   0.000029
    15  C   -0.000770   0.000168   0.000073
    16  C    0.000000   0.000001   0.000016
    17  C   -0.000501   0.000103  -0.000042
    18  C    0.004306  -0.000746   0.000117
    19  C    0.000004  -0.000001  -0.000130
    20  C    0.006411  -0.003555  -0.001446
    21  C    0.002956   0.003677  -0.000274
    22  C    0.000175  -0.000016   0.000184
    23  C   -0.000004   0.000000  -0.000073
    24  C    0.000000   0.000001   0.000044
    25  H   -0.000025   0.000000   0.000001
    26  H    0.000000   0.000000   0.000000
    27  H    0.000002  -0.000005  -0.000001
    28  H    0.000000   0.000000   0.000000
    29  H    0.000001  -0.000002  -0.000001
    30  H   -0.000078  -0.000004   0.000017
    31  H   -0.000029  -0.000002   0.000002
    32  H    0.000000   0.000000   0.000000
    33  H    0.000000   0.000000   0.000000
    34  H   -0.000087   0.000002   0.000024
    35  H    0.000000   0.000000  -0.000001
    36  H    0.000000   0.000000   0.000000
    37  O    9.242988   0.089456   0.131655
    38  H    0.089456   0.396975   0.016248
    39  H    0.131655   0.016248   0.349421
 Mulliken atomic charges:
              1
     1  C    0.076020
     2  C    0.002472
     3  C   -0.081915
     4  C   -0.007495
     5  C    0.006619
     6  C   -0.007905
     7  C    0.152220
     8  C    0.143454
     9  C    0.142858
    10  C    0.147614
    11  C    0.163375
    12  C    0.142617
    13  C   -0.245176
    14  C   -0.213680
    15  C   -0.213403
    16  C   -0.214695
    17  C   -0.215203
    18  C   -0.206717
    19  C   -0.211096
    20  C   -0.243178
    21  C   -0.213908
    22  C   -0.211000
    23  C   -0.210340
    24  C   -0.214721
    25  H    0.111642
    26  H    0.123267
    27  H    0.126424
    28  H    0.127222
    29  H    0.128024
    30  H    0.121988
    31  H    0.112184
    32  H    0.126033
    33  H    0.127216
    34  H    0.122810
    35  H    0.125636
    36  H    0.125643
    37  O   -0.553207
    38  H    0.387224
    39  H    0.421080
 Sum of Mulliken atomic charges =   0.00000
 Mulliken charges with hydrogens summed into heavy atoms:
              1
     1  C    0.076020
     2  C    0.002472
     3  C   -0.081915
[...]
 623,0.00013163,0.00017128,-0.00002054,-0.00137432,-0.00472300,0.001114
 84,0.02830575,0.00315544,-0.00118982,-0.00001183,-0.00012035,0.0000138
 0,0.00002598,-0.00003818,-0.00000481,0.00001214,-0.00001187,0.00000157
 ,-0.00037786,0.00004279,0.00000104,-0.02929982,0.00476986,0.00104512,-
 0.00029697,-0.00036518,-0.00001642,0.00156008,0.00165979,-0.00041538,-
 0.00107868,0.00083209,0.00001432,-0.00007279,0.00010183,-0.00000384,0.
 00561078,-0.05993955,0.00173412,0.00007527,0.00001993,-0.00000638,-0.0
 0017876,0.00004241,0.00000482,-0.00000184,0.00000964,-0.00000232,0.000
 01923,0.00000205,-0.00000065,-0.00000031,0.00000201,0.00000070,-0.0008
 7247,-0.00033198,0.00008223,0.00025345,0.00095774,-0.00046431,0.000001
 66,0.00000042,0.00000009,0.00001335,-0.00003477,0.00001359,0.00000013,
 -0.00001318,0.00001197,-0.00000145,0.00000008,0.00000024,-0.00015295,0
 .00000064,0.00000491,-0.00511197,0.05951558,0.00002317,0.00002815,0.00
 030568,-0.00001346,0.00000660,-0.00027304,-0.00006180,-0.00011782,-0.0
 0123171,-0.00006953,0.00001960,0.00061842,-0.00000067,0.00008006,0.000
 22035,0.00007081,0.00062228,0.00399445,-0.00000184,-0.00000667,-0.0000
 2297,-0.00000373,0.00000527,0.00005335,-0.00000275,0.00003527,0.000290
 87,-0.00001712,-0.00001525,-0.00000609,0.00040713,0.00117038,0.0084529
 2,-0.00165636,0.00006453,0.00289741,0.00000287,0.00000985,0.00004243,-
 0.00000506,-0.00000535,-0.00008440,-0.00000133,0.00000286,0.00001596,0
 .00001841,-0.00002780,-0.00012369,0.00296308,-0.00025101,0.00261941,-0
 .00000568,-0.00001658,-0.00073307,-0.00026685,-0.00028292,-0.00281468,
 0.00013054,-0.00005029,0.00044340,0.00000342,-0.00000531,0.00002036,0.
 01212521,0.00171520,-0.03600303,-0.00000536,-0.00000350,-0.00001629,0.
 00001138,-0.00000220,0.00000728,-0.00000006,-0.00000253,-0.00001922,-0
 .00000084,-0.00000030,0.00000423,0.00000099,0.00000060,0.00001001,0.00
 005771,0.00000890,0.00025943,-0.00025923,-0.00044083,-0.00472043,0.000
 00029,0.00000064,0.00000175,0.00000416,0.00001529,0.00013578,0.0000061
 7,0.00000947,0.00013645,0.00000032,-0.00000032,0.00000191,0.00001479,-
 0.00000147,-0.00001822,-0.01346511,-0.00256346,0.02549428,0.00017497,-
 0.00004094,-0.00006150,-0.00052380,0.00049431,-0.00000758,-0.00008951,
 -0.00008132,0.00002615,-0.00171636,0.00271016,0.00002447,-0.00017949,0
 .00012653,-0.00001585,0.00065155,0.00066325,-0.00004958,-0.00002102,0.
 00025325,-0.00000726,-0.00510416,0.00248363,0.00035686,0.00007823,-0.0
 0003083,-0.00000151,0.01090527,0.01380132,-0.00140984,-0.00000721,0.00
 004491,-0.00000180,0.00021332,0.00013811,-0.00001979,0.00004146,-0.000
 10066,0.00000682,0.00017380,-0.00159464,0.00013270,-0.00056858,0.00000
 220,-0.00000623,0.00129528,0.00121410,-0.00026426,0.00007993,0.0000484
 4,-0.00000778,-0.00001820,0.00003072,-0.00000087,0.00005478,-0.0003873
 1,0.00002114,0.00001261,0.00003073,-0.00000643,-0.00008973,0.00004836,
 0.00000192,-0.00003708,-0.00015587,0.00001443,-0.01216244,-0.02954490,
 0.00293569,-0.13227821,-0.12067239,0.01347649,-0.00000484,0.00000164,0
 .00000020,-0.00003574,0.00004237,0.00000399,-0.00009291,-0.00015290,0.
 00001551,0.00001192,-0.00001418,0.00000577,0.00000274,-0.00000596,0.00
 000036,0.00000356,-0.00001255,0.,0.00001102,0.00000385,-0.00000065,-0.
 00017598,-0.00049345,0.00005864,0.00098157,0.00023528,-0.00025164,-0.0
 0000250,-0.00000682,0.00000105,0.00000078,0.00001836,-0.00000071,0.138
 41714,-0.00010281,0.00002418,-0.00010355,0.00076367,0.00010592,-0.0000
 0844,0.00007903,0.00006754,0.00001667,0.00429231,-0.00258630,0.0003290
 3,0.00039012,-0.00029502,-0.00001861,-0.00146462,-0.00062134,0.0001590
 9,-0.00000389,-0.00009744,0.00003227,0.00095718,0.00148043,0.00052241,
 -0.00003723,-0.00003033,0.00000216,-0.01572551,-0.01997685,0.00244541,
 -0.00013105,-0.00009307,0.00001813,-0.00006704,0.00018194,-0.00001580,
 -0.00002453,0.00006278,-0.00000217,0.00002667,0.00000693,0.00003414,-0
 .00003620,0.00011271,-0.00006618,-0.00225515,0.00104872,-0.00021443,0.
 00002295,-0.00002152,-0.00000060,-0.00002194,0.00001666,0.00000084,0.0
 0039684,0.00002553,-0.00002749,0.00005507,-0.00003019,-0.00000583,0.00
 006675,-0.00002728,0.00000300,0.00005083,0.00007687,-0.00000574,0.0021
 1966,0.00439074,-0.00019996,-0.12126301,-0.26247746,0.02283282,-0.0000
 1011,0.00000038,0.00000053,-0.00001336,0.00001194,0.00001050,0.0000028
 6,0.00000062,-0.00000166,0.00004170,-0.00003578,0.00001197,0.00000579,
 -0.00000721,0.00000016,-0.00000821,-0.00000759,-0.00000058,-0.00000486
 ,-0.00002264,0.00000239,0.00124749,0.00030859,-0.00005238,-0.00027393,
 0.00092423,-0.00044179,-0.00000682,-0.00000840,0.00000172,0.00003040,-
 0.00002921,0.00000263,0.13089370,0.27750375,-0.00005692,-0.00010861,-0
 .00125889,-0.00002098,0.00000413,0.00029154,0.00000925,0.00002264,0.00
 031380,-0.00009691,0.00041025,0.00396739,-0.00003380,-0.00000886,-0.00
 027669,0.00011390,0.00007059,0.00062356,0.00001508,0.00002160,0.000294
 90,0.00047156,0.00045760,0.00849244,0.00000033,0.00000219,-0.00002277,
 0.00091262,0.00119010,0.00273501,0.00000972,0.00001122,0.00005117,-0.0
 0000424,-0.00001620,-0.00001243,0.00000035,-0.00000082,0.00001976,0.00
 000864,0.00009503,0.00043783,-0.00000599,-0.00006549,-0.00073319,-0.00
 000027,-0.00035233,-0.00280677,-0.00000185,0.00000022,-0.00001757,0.00
 000251,-0.00000111,0.00001535,-0.00003869,-0.00000229,-0.00011897,-0.0
 0000813,-0.00000571,-0.00008411,-0.00000070,0.00000444,0.00004380,-0.0
 0000279,-0.00000379,0.00000909,0.00041941,0.00105276,0.00264858,0.0135
 5767,0.02290615,-0.03768948,0.00000129,0.00000010,0.00000187,0.0000077
 5,0.00000786,0.00013659,0.00000281,0.00000472,-0.00001822,0.00000229,0
 .00001337,0.00013627,-0.00000050,0.00000100,0.00000194,-0.00000032,-0.
 00000041,-0.00001960,0.00000006,0.00000199,0.00000440,-0.00007967,0.00
 001737,0.00027358,-0.00020966,-0.00046078,-0.00472592,0.00000106,0.000
 00176,0.00000995,-0.00000160,0.00000307,0.00002008,-0.01497754,-0.0252
 8145,0.02724444,0.00005819,-0.00008904,0.00026494,-0.00029752,-0.00025
 417,-0.00008742,-0.00019631,0.00019351,-0.00012119,-0.00017799,0.00023
 350,0.00009474,-0.00027778,-0.00026299,0.00014092,0.00006849,-0.000131
 93,-0.00028108,0.00023713,-0.00002911,-0.00003145,-0.00006561,-0.00003
 487,-0.00001986,-0.00001103,0.00013062,-0.00003138,0.00001089,0.000161
 76,0.00000227,-0.00004305,-0.00005935,0.00002486,0.00027782,-0.0000280
 7,0.00001049,0.00009559,0.00000869,0.00006220,-0.00003567,0.00000513,0
 .00002785,0.00011143,-0.00000655,0.00006262,0.00001328,0.00002449,-0.0
 0004868,-0.00004226,0.00000313,-0.00002142,0.00001534,0.00010072,0.000
 02563,0.00008562,-0.00001155,-0.00006320,-0.00000467,-0.00007833,-0.00
 001262,0.00001981,0.00003229,0.00004496,0.00010019,-0.00000732,-0.0000
 6378,-0.00000781,-0.00007794,0.00002906,0.00001555,0.00009442,-0.00004
 032,0.00002473,-0.00000484,-0.00003420,0.00001236,-0.00001325,-0.00001
 732,0.00002486,0.00000253,-0.00003427,0.00002159,-0.00000029,0.0000303
 5,0.00001048,-0.00000626,0.00001617,0.00001026,0.00001456,-0.00002700,
 0.00000817,-0.00000271,0.00000855,0.00000908,0.00001465,0.00002264,0.0
 0000928,-0.00000913,-0.00001007,0.00001113,0.00000909,-0.00001903,0.00
 002161,0.00000821,0.00002912,0.00001071,0.00000723,0.00001557,0.616835
 09,-0.00006435,-0.00083240,0.00004468,-0.00046371,-0.00015637,-0.00004
 381,0.00032448,-0.00010852,0.00001670,0.00034297,-0.00007163,-0.000048
 25,-0.00044154,-0.00019394,0.00008709,-0.00000108,-0.00082875,0.000037
 49,0.00002792,-0.00011821,0.00002345,-0.00031333,0.00034875,-0.0000122
 5,0.00028276,0.00031427,-0.00007824,0.00032284,0.00036980,-0.00001193,
 -0.00027410,0.00029317,-0.00002718,0.00009682,-0.00012518,-0.00001734,
 -0.00006262,-0.00005215,0.00001364,-0.00016672,0.00014236,-0.00008038,
 0.00011824,-0.00009080,0.00002073,0.00015952,0.00013820,-0.00009875,-0
 .00016722,0.00015830,0.00007710,0.00006206,0.00014370,0.00008736,-0.00
 007204,-0.00006990,0.00001295,-0.00005180,0.00011338,0.00008745,0.0001
 6986,0.00015268,0.00006644,0.00010615,-0.00007580,-0.00000442,-0.00006
 780,0.00009475,-0.00009293,0.00006008,0.00012641,-0.00010956,0.0000079
 4,0.00001156,-0.00001088,0.00000646,0.00002901,0.00003612,0.00000396,0
 .00001487,-0.00000172,-0.00000234,0.00001190,0.00000437,-0.00000280,0.
 00003061,-0.00004391,0.00000380,0.00003044,-0.00004825,-0.00001795,0.0
 0002546,-0.00004846,0.00000138,0.00003004,0.00004073,-0.00001075,0.000
 02357,0.00004281,0.00001859,0.00002510,-0.00005373,-0.00000706,0.00001
 582,-0.00000496,0.00001910,0.00002425,0.00004576,-0.12620033,0.0302350
 3,-0.00040694,0.00001982,-0.00032329,-0.00006518,0.00035217,-0.0001564
 0,-0.00014066,-0.00030213,-0.00006125,0.00010215,0.00027963,-0.0001264
 8,0.00015037,-0.00032346,-0.00012239,0.00037972,0.00006100,-0.00033158
 ,-0.00049674,0.00003535,-0.00004310,-0.00022645,0.00031523,-0.00009417
 ,-0.00025578,-0.00036430,-0.00003063,0.00020357,0.00028858,-0.00010846
 ,0.00026715,-0.00036904,-0.00005994,0.00045586,-0.00002210,-0.00007555
 ,0.00005880,0.00012322,0.00005681,0.00007431,-0.00003130,0.00005358,0.
 00005881,-0.00009227,0.00007760,-0.00004177,-0.00001604,0.00003995,-0.
 00004074,0.00001460,0.00004332,-0.00003736,0.00000012,0.00001876,-0.00
 005090,-0.00010205,0.00008442,0.00005885,0.00003464,0.00003027,0.00001
 705,-0.00000431,0.00001966,-0.00007841,0.00011755,0.00007270,-0.000046
 44,-0.00003747,0.00005329,0.00002924,-0.00002604,0.00003694,0.00006713
 ,0.00000355,-0.00002872,0.00003751,-0.00005553,-0.00002000,0.00006767,
 -0.00001223,-0.00002815,-0.00007159,-0.00000932,-0.00002579,-0.0000401
 8,0.00004827,-0.00001994,0.00003769,0.00004313,-0.00001699,-0.00002319
 ,0.00005615,-0.00002088,-0.00004042,-0.00005168,-0.00001531,0.00002299
 ,-0.00006307,-0.00001989,0.00002041,0.00005277,-0.00001717,-0.00007138
 ,0.00000504,-0.00002599,-0.00002578,-0.00006006,-0.00001576,0.00343792
 ,0.03903025,0.45414232,0.00041852,0.00005833,-0.00012005,0.00038882,0.
 00022969,0.00021506,0.00028393,-0.00016454,0.00025857,-0.00017240,-0.0
 0016250,0.00008406,-0.00009894,0.00021067,0.00001213,-0.00033025,0.000
 12398,0.00003740,-0.00007724,-0.00000789,0.00003448,0.00029704,-0.0002
 4452,0.00012703,0.00025800,0.00016211,0.00009060,-0.00019019,-0.000303
 49,0.00005807,-0.00012511,0.00020618,0.00002884,-0.00022799,0.00001984
 ,0.00003275,-0.00016623,-0.00021112,-0.00011502,-0.00001960,0.00002511
 ,-0.00002463,-0.00021988,0.00018253,-0.00011432,-0.00000091,0.00000965
 ,0.00000822,0.00003369,-0.00003152,-0.00000380,0.00001917,-0.00010017,
 -0.00002750,-0.00000652,0.00002967,-0.00001191,-0.00004485,0.00001572,
 -0.00001043,-0.00007580,-0.00002333,0.00000023,-0.00002047,-0.00002432
 ,-0.00000824,0.00005998,0.00009751,-0.00004725,-0.00007579,-0.00002002
 ,-0.00000402,-0.00003873,0.00000389,0.00003963,-0.00002909,0.00001763,
 0.00001119,-0.00004050,-0.00000034,0.00004075,0.00002167,0.00000506,0.
 00000055,0.00001260,-0.00001572,0.00000212,-0.00002580,-0.00001458,0.0
 0001652,-0.00000201,-0.00002209,0.00000558,0.00001591,0.00001189,-0.00
 000516,-0.00000789,0.00002774,0.00000998,-0.00000890,-0.00002381,0.000
 01479,0.00002114,-0.00000895,0.00000127,-0.00000362,0.00002187,-0.0000
 0196,-0.29073522,0.07549629,0.18096244,0.32195495,0.00006725,0.0009472
 7,-0.00010336,0.00019002,0.00023052,-0.00000443,-0.00007354,0.00003922
 ,-0.00013421,-0.00060015,0.00003928,-0.00006568,0.00055830,-0.00001650
 ,0.00001174,0.00000224,0.00030411,-0.00004181,-0.00012447,0.00014889,-
 0.00007701,0.00031918,-0.00046861,0.00004940,-0.00029145,-0.00047946,0
 .00010656,-0.00014614,-0.00003448,-0.00004107,0.00012817,-0.00006792,0
 .00002356,0.00002418,0.00001320,-0.00001216,0.00002014,0.00012430,-0.0
 0001517,0.00014008,-0.00019086,0.00005708,-0.00005112,0.00014949,-0.00
 003714,-0.00010587,-0.00006183,0.00004334,0.00007716,-0.00007192,-0.00
 001823,0.00001421,-0.00012540,-0.00005251,0.00006956,0.00000263,0.0000
 0363,0.00001152,-0.00003069,-0.00002232,-0.00007557,-0.00019644,0.0000
 0085,-0.00007994,0.00001144,0.00000569,-0.00002577,-0.00014153,0.00009
 144,-0.00001827,-0.00005857,0.00002722,-0.00000294,-0.00000688,0.00000
 414,-0.00001304,-0.00002472,-0.00002348,0.00000052,-0.00001499,0.00000
 723,-0.00000006,-0.00001255,0.00000006,-0.00000882,-0.00000406,0.00000
 960,0.00001046,-0.00001837,0.00002556,-0.00000284,-0.00000050,0.000010
 21,0.00000433,-0.00000966,-0.00001296,0.00001043,-0.00000934,-0.000028
 80,-0.00000915,-0.00000219,0.00002696,-0.00000316,-0.00001038,-0.00000
 048,0.00000027,-0.00000819,-0.00001423,0.08124946,-0.02217756,-0.05789
 861,-0.08493793,0.02326176,0.00037273,0.00000381,-0.00000088,-0.000313
 89,-0.00076471,-0.00013300,-0.00028054,0.00077936,-0.00029338,-0.00036
 740,-0.00004899,-0.00011047,-0.00027487,0.00005314,-0.00010854,-0.0001
 1101,-0.00002785,-0.00014208,0.00075407,-0.00004310,0.00005867,0.00019
 088,-0.00027172,0.00005578,0.00011469,0.00021099,-0.00002202,-0.000019
 82,-0.00005164,0.00003890,-0.00003010,0.00007767,0.00002628,-0.0000513
 1,-0.00000435,0.00003247,0.00001382,-0.00003134,-0.00005929,-0.0001198
 1,0.00003414,-0.00010305,0.00001189,0.00004765,-0.00010655,0.00001927,
 0.00000642,-0.00002004,0.00001068,-0.00001195,-0.00001128,0.00000165,0
 .00001414,-0.00002332,0.00005193,0.00002796,-0.00002423,0.00001288,-0.
 00005891,-0.00001443,-0.00004393,-0.00005400,-0.00007191,0.00005811,-0
 .00002340,-0.00001824,-0.00000337,-0.00000666,-0.00004446,0.00004369,0
 .00005415,-0.00003534,-0.00006979,-0.00001943,0.00003853,-0.00003082,0
 .00005756,0.00003773,-0.00007116,0.00002563,0.00003999,0.00002851,0.00
 000106,0.00000724,0.00002187,-0.00002160,0.00000587,-0.00002296,-0.000
 04178,0.00003178,0.00001921,-0.00002569,0.00001196,0.00002586,0.000024
 02,0.00000566,-0.00000883,0.00006025,0.00001978,-0.00000705,-0.0000445
 9,0.00001607,0.00002836,-0.00000101,0.00000612,0.00002393,0.00003177,0
 .00001396,0.24652822,-0.07134604,-0.23712745,-0.21534473,0.06390815,0.
 22524609,-0.00032534,0.00011210,-0.00004350,-0.00008006,0.00020106,-0.
 00005074,-0.00013855,-0.00017156,-0.00005508,0.00028890,-0.00027428,-0
 .00027054,0.00039160,0.00024916,-0.00029529,0.00039645,0.00006427,0.00
 008618,-0.00022672,0.00001644,-0.00001456,-0.00012755,0.00019717,-0.00
 004775,-0.00018799,-0.00030044,0.00000741,0.00023977,0.00012910,-0.000
 13474,0.00026585,-0.00023340,-0.00010553,-0.00014336,-0.00000613,-0.00
 001722,-0.00001102,0.00002865,0.00000632,0.00003221,-0.00002932,0.0000
 0490,-0.00002390,-0.00002072,0.00001232,-0.00007040,-0.00001776,0.0000
 0320,-0.00000944,0.00002414,0.00001370,-0.00007774,-0.00002368,0.00001
 126,-0.00015659,-0.00018560,0.00015313,0.00006212,0.00010415,0.0000228
 9,-0.00000203,0.00000789,-0.00001062,-0.00021062,0.00019188,0.00009129
 ,-0.00004604,0.00002193,0.00000955,0.00002270,-0.00009598,0.00003938,0
 .00001921,0.00000497,-0.00000232,0.00001083,-0.00001406,-0.00000026,0.
 00001877,-0.00000890,-0.00000094,-0.00003557,0.00000014,-0.00003380,-0
 .00002685,0.00001166,-0.00000794,0.00001396,0.00001065,0.00000270,-0.0
 0000812,0.00002101,-0.00001129,-0.00002490,-0.00001292,-0.00000980,-0.
 00000384,-0.00002045,-0.00000103,-0.00000544,0.00001953,0.00000044,-0.
 00003718,-0.00000791,-0.00003335,-0.00000924,-0.00002187,-0.00000935,-
 0.32622375,0.05075632,-0.18434973,-0.03104151,0.00367275,-0.03116084,0
 .35749137,0.00002220,0.00030620,-0.00002954,0.00059334,-0.00003207,-0.
 00007295,-0.00053055,0.00005740,0.00008383,-0.00002735,-0.00005730,0.0
 0010705,0.00023054,0.00032639,-0.00008875,0.00000389,0.00094385,-0.000
 04988,0.00003348,0.00001616,0.00001203,0.00013208,-0.00008396,-0.00001
 703,-0.00013523,-0.00001789,0.00006104,-0.00031491,-0.00051781,-0.0000
 0080,0.00028267,-0.00042228,0.00000344,-0.00022578,0.00016428,0.000076
 83,0.00006001,-0.00000348,-0.00001197,0.00007676,-0.00006614,0.0000209
 4,-0.00008853,0.00001411,-0.00000374,-0.00006849,-0.00018500,0.0000228
 4,0.00014856,-0.00020299,-0.00005250,-0.00002676,-0.00006993,-0.000019
 34,0.00002004,0.00012914,-0.00001700,-0.00003079,-0.00015073,-0.000071
 53,-0.00011051,-0.00006796,-0.00002656,-0.00004989,0.00013902,0.000001
 80,0.00001190,-0.00001848,0.00002197,0.00001775,-0.00011706,0.00006579
 ,-0.00000445,-0.00001224,0.00000340,-0.00001287,-0.00000184,-0.0000073
 9,-0.00000748,-0.00000973,0.00000364,0.00000835,-0.00000374,0.00000225
 ,-0.00000540,-0.00002823,0.00003426,0.00000146,-0.00001105,0.00001552,
 0.00001432,-0.00001346,0.00003283,0.00001257,-0.00001475,-0.00001934,-
 0.00000641,0.00000232,-0.00000819,-0.00000205,-0.00001037,0.00001826,0
 .00001181,-0.00001853,0.00000143,-0.00000987,0.00000113,-0.00002384,0.
 04501407,-0.00800221,0.01895995,0.00936148,-0.00102855,0.00748089,-0.0
 5439998,0.00906775,0.00012475,-0.00005299,-0.00014585,0.00018927,-0.00
 008794,-0.00011244,0.00045377,0.00003789,-0.00015926,0.00024156,-0.000
 79670,-0.00018566,0.00022972,0.00067076,-0.00024401,-0.00041018,-0.000
 14736,0.00003447,0.00006961,0.00000474,0.00002684,0.00002389,-0.000077
 69,0.00004294,0.00006050,0.00008716,0.00001887,-0.00009079,-0.00014766
 ,0.00003279,-0.00025470,0.00036535,0.00003798,-0.00070951,0.00003195,0
 .00010387,-0.00006267,-0.00003391,-0.00001421,-0.00002697,0.00002314,-
 0.00001608,-0.00004488,0.00002100,-0.00001773,0.00005656,0.00007158,-0
 .00008816,0.00009083,-0.00002199,-0.00009829,-0.00003521,-0.00004658,-
 0.00002082,-0.00000828,0.00001986,-0.00007433,-0.00000095,0.00001381,-
 0.00003603,-0.00000400,0.00000057,-0.00001232,0.00000484,-0.00010312,-
 0.00010565,-0.00001262,0.00005797,-0.00002722,-0.00000839,0.00000893,-
 0.00003491,-0.00002917,0.00000172,0.00000943,-0.00002076,0.00002422,0.
 00000546,-0.00002862,0.00000445,0.00000784,0.00007519,0.00002557,0.000
 03219,0.00003752,-0.00004820,0.00003922,-0.00002688,-0.00002214,0.0000
 0894,0.00000937,-0.00005665,0.00002423,0.00002594,0.00005020,0.0000271
 6,-0.00001731,0.00002924,0.00001091,-0.00002196,-0.00002946,0.00001796
 ,0.00007649,-0.00001625,0.00004050,0.00001052,0.00004906,0.00001304,-0
 .24991478,0.03240788,-0.21581434,0.03374674,-0.00580877,0.01277704,0.2
 1620159,-0.02650965,0.20389563\\-0.00001061,-0.00000011,-0.00001126,0.
 00000559,-0.00000180,0.00000293,-0.00000467,0.00000923,0.00000259,0.00
 000049,-0.00000389,0.00000073,-0.00000115,-0.00000853,-0.00000075,0.00
 000577,0.00000512,-0.00000114,0.00001082,-0.00000511,0.00000186,0.0000
 0290,-0.00000323,0.00000260,-0.00000801,-0.00001437,0.00000671,0.00000
 833,0.00000868,-0.00000153,-0.00000642,0.00000660,0.00000380,-0.000002
 43,0.00000211,0.00000201,-0.00000433,0.00000380,0.00000068,-0.00000135
 ,-0.00000681,-0.00000221,-0.00000325,-0.00000561,0.00000225,-0.0000015
 7,0.00000839,-0.00000070,0.00000046,0.00000613,-0.00000203,-0.00000109
 ,0.00000502,-0.00000087,0.00000132,0.00000058,0.00000065,-0.00000464,-
 0.00000541,-0.00000071,0.00000462,-0.00000674,0.00000008,0.00000195,0.
 00000486,-0.00000105,0.00000581,0.00000299,-0.00000160,0.00000373,-0.0
 0000038,0.00000118,0.00000162,-0.00000365,-0.00000008,-0.00000349,-0.0
 0000033,0.00000091,-0.00000088,-0.00000166,0.,-0.00000178,0.00000353,-
 0.00000044,0.00000429,-0.00000010,-0.00000033,0.00000431,-0.00000179,-
 0.00000058,0.00000055,0.00000240,-0.00000001,-0.00000539,0.00000141,0.
 00000017,-0.00000052,-0.00000265,0.00000033,-0.00000123,-0.00000143,-0
 .00000015,0.00000062,0.00000172,0.00000032,0.00000153,0.00000037,0.,0.
 00000130,0.00000085,0.00001112,-0.00001463,0.00000291,-0.00000741,0.00
 001139,-0.00000309,-0.00000806\\\@


 ... I FELL INTO A REVERIE ... THE ATOMS WERE GAMBOLING BEFORE MY EYES
 ... I SAW HOW TWO SMALL ONES UNITED TO FORM A PAIR;
 HOW THE LARGER ONES SEIZED TWO OF THE SMALLER ONES;
 HOW STILL LARGER ONES KEPT HOLD OF THREE OR FOUR
 SMALLER ONES ... I SAW HOW THE LARGER ONES FORMED A CHAIN ...
 THIS WAS THE ORIGIN OF THE STRUCTURE THEORY.

                                   -- C.F.KEKULE VON STRADONITZ
 Job cpu time:  0 days  6 hours 28 minutes 21.2 seconds.
 File lengths (MBytes):  RWF=    746 Int=      0 D2E=      0 Chk=     13 Scr=      1
 Normal termination of Gaussian 09 at Tue Jun 10 21:20:14 2025.
