 Entering Gaussian System, Link 0=g09
 Input=WaC21.gjf
 Output=WaC21.log
 Initial command:
 /share/apps/g09/l1.exe /scratch/Gau-21815.inp -scrdir=/scratch/
 Entering Link 1 = /share/apps/g09/l1.exe PID=     21816.
  
 Copyright (c) 1988,1990,1992,1993,1995,1998,2003,2009,2010,
            Gaussian, Inc.  All Rights Reserved.
  
 This is part of the Gaussian(R) 09 program.  It is based on
 the Gaussian(R) 03 system (copyright 2003, Gaussian, Inc.),
 the Gaussian(R) 98 system (copyright 1998, Gaussian, Inc.),
 the Gaussian(R) 94 system (copyright 1995, Gaussian, Inc.),
 the Gaussian 92(TM) system (copyright 1992, Gaussian, Inc.),
 the Gaussian 90(TM) system (copyright 1990, Gaussian, Inc.),
 the Gaussian 88(TM) system (copyright 1988, Gaussian, Inc.),
 the Gaussian 86(TM) system (copyright 1986, Carnegie Mellon
 University), and the Gaussian 82(TM) system (copyright 1983,
 Carnegie Mellon University). Gaussian is a federally registered
 trademark of Gaussian, Inc.
  
 This software contains proprietary and confidential information,
 including trade secrets, belonging to Gaussian, Inc.
  
 This software is provided under written license and may be
 used, copied, transmitted, or stored only in accord with that
 written license.
  
 The following legend is applicable only to US Government
 contracts under FAR:
  
                    RESTRICTED RIGHTS LEGEND
  
 Use, reproduction and disclosure by the US Government is
 subject to restrictions as set forth in subparagraphs (a)
 and (c) of the Commercial Computer Software - Restricted
 Rights clause in FAR 52.227-19.
  
 Gaussian, Inc.
 340 Quinnipiac St., Bldg. 40, Wallingford CT 06492
  
  
 ---------------------------------------------------------------
 Warning -- This program may not be used in any manner that
 competes with the business of Gaussian, Inc. or will provide
 assistance to any competitor of Gaussian, Inc.  The licensee
 of this program is prohibited from giving any competitor of
 Gaussian, Inc. access to this program.  By using this program,
 the user acknowledges that Gaussian, Inc. is engaged in the
 business of creating and licensing software in the field of
 computational chemistry and represents and warrants to the
 licensee that it is not a competitor of Gaussian, Inc. and that
 it will not use this program in any manner prohibited above.
 ---------------------------------------------------------------
  

 Cite this work as:
 Gaussian 09, Revision B.01,
 M. J. Frisch, G. W. Trucks, H. B. Schlegel, G. E. Scuseria, 
 M. A. Robb, J. R. Cheeseman, G. Scalmani, V. Barone, B. Mennucci, 
 G. A. Petersson, H. Nakatsuji, M. Caricato, X. Li, H. P. Hratchian, 
 A. F. Izmaylov, J. Bloino, G. Zheng, J. L. Sonnenberg, M. Hada, 
 M. Ehara, K. Toyota, R. Fukuda, J. Hasegawa, M. Ishida, T. Nakajima, 
 Y. Honda, O. Kitao, H. Nakai, T. Vreven, J. A. Montgomery, Jr., 
 J. E. Peralta, F. Ogliaro, M. Bearpark, J. J. Heyd, E. Brothers, 
 K. N. Kudin, V. N. Staroverov, T. Keith, R. Kobayashi, J. Normand, 
 K. Raghavachari, A. Rendell, J. C. Burant, S. S. Iyengar, J. Tomasi, 
 M. Cossi, N. Rega, J. M. Millam, M. Klene, J. E. Knox, J. B. Cross, 
 V. Bakken, C. Adamo, J. Jaramillo, R. Gomperts, R. E. Stratmann, 
 O. Yazyev, A. J. Austin, R. Cammi, C. Pomelli, J. W. Ochterski, 
 R. L. Martin, K. Morokuma, V. G. Zakrzewski, G. A. Voth, 
 P. Salvador, J. J. Dannenberg, S. Dapprich, A. D. Daniels, 
 O. Farkas, J. B. Foresman, J. V. Ortiz, J. Cioslowski, 
 and D. J. Fox, Gaussian, Inc., Wallingford CT, 2010.
 
 ******************************************
 Gaussian 09:  AM64L-G09RevB.01 12-Aug-2010
                11-Jun-2025 
 ******************************************
 %nprocshared=16
 Will use up to   16 processors via shared memory.
 %mem=20GB
 ---------------------------------------------------
 # opt freq b3lyp/6-31g(d) geom=connectivity scf=xqc
 ---------------------------------------------------
 1/14=-1,18=20,19=15,26=3,38=1,57=2/1,3;
 2/9=110,12=2,17=6,18=5,40=1/2;
 3/5=1,6=6,7=1,11=2,16=1,25=1,30=1,71=1,74=-5/1,2,3;
 4//1;
 5/5=2,8=3,13=1,38=5/2,8;
 6/7=2,8=2,9=2,10=2,28=1/1;
 7//1,2,3,16;
 1/14=-1,18=20,19=15/3(2);
 2/9=110/2;
 99//99;
 2/9=110/2;
 3/5=1,6=6,7=1,11=2,16=1,25=1,30=1,71=1,74=-5/1,2,3;
 4/5=5,16=3/1;
 5/5=2,8=3,13=1,38=5/2,8;
 7//1,2,3,16;
 1/14=-1,18=20,19=15/3(-5);
 2/9=110/2;
 6/7=2,8=2,9=2,10=2,19=2,28=1/1;
 99/9=1/99;
 --------
 Wac_opti
 --------
 Symbolic Z-matrix:
 Charge =  0 Multiplicity = 1
 6                    -1.41626   0.18178  -0.1977 
 6                    -0.86485  -1.13628  -0.19861 
 6                    -0.55092   1.31829  -0.1988 
 6                     0.55147  -1.31773  -0.19905 
 6                     0.86539   1.13685  -0.1979 
 6                     1.41681  -0.18122  -0.19731 
 6                    -2.82695   0.36253  -0.19805 
 6                    -1.72638  -2.26719  -0.19987 
 6                    -1.09965   2.62951  -0.20056 
 6                     1.1002   -2.62895  -0.20107 
 6                     1.72692   2.26774  -0.19849 
 6                     2.8275   -0.36197  -0.19722 
 6                    -3.34757   1.68811  -0.19934 
 6                    -3.13455  -2.05516  -0.19949 
 6                    -3.66457  -0.78918  -0.19842 
 6                     2.51626  -2.77902  -0.20111 
 6                     3.13509   2.05571  -0.1977 
 6                    -0.21238   3.74327  -0.201 
 6                     3.34811  -1.68755  -0.1988 
 6                     1.14871   3.56912  -0.20468 
 6                    -2.51571   2.77958  -0.201 
 6                     3.66512   0.78974  -0.19689 
 6                    -1.14816  -3.56856  -0.20631 
 6                     0.21293  -3.74272  -0.20223 
 1                    -4.42633   1.82364  -0.194 
 1                    -3.79134  -2.92164  -0.19929 
 1                    -4.74273  -0.64877  -0.19778 
 1                     4.42687  -1.82309  -0.19315 
 1                     3.79188   2.9222   -0.19694 
 1                    -2.93245   3.78375  -0.20123 
 1                     1.80963   4.43241  -0.20392 
 1                     2.93299  -3.7832   -0.20156 
 1                    -1.80907  -4.43186  -0.20609 
 1                    -0.63453   4.74521  -0.20101 
 1                     4.74327   0.64933  -0.19594 
 1                     0.63508  -4.74466  -0.20245 
 8                    -0.0043   -0.00433   3.22894 
 1                    -0.78084   0.29331   2.62598 
 1                     0.77263  -0.30702   2.62646 
 

 GradGradGradGradGradGradGradGradGradGradGradGradGradGradGradGradGradGrad
 Berny optimization.
 Initialization pass.
                           ----------------------------
                           !    Initial Parameters    !
                           ! (Angstroms and Degrees)  !
 --------------------------                            --------------------------
 ! Name  Definition              Value          Derivative Info.                !
 --------------------------------------------------------------------------------
 ! R1    R(1,2)                  1.4288         estimate D2E/DX2                !
 ! R2    R(1,3)                  1.4284         estimate D2E/DX2                !
 ! R3    R(1,7)                  1.4222         estimate D2E/DX2                !
 ! R4    R(1,37)                 3.7108         estimate D2E/DX2                !
 ! R5    R(1,38)                 2.8964         estimate D2E/DX2                !
 ! R6    R(1,39)                 3.6064         estimate D2E/DX2                !
 ! R7    R(2,4)                  1.4279         estimate D2E/DX2                !
 ! R8    R(2,8)                  1.4217         estimate D2E/DX2                !
 ! R9    R(2,37)                 3.7108         estimate D2E/DX2                !
 ! R10   R(2,38)                 3.1669         estimate D2E/DX2                !
 ! R11   R(2,39)                 3.369          estimate D2E/DX2                !
 ! R12   R(3,5)                  1.4279         estimate D2E/DX2                !
 ! R13   R(3,9)                  1.4214         estimate D2E/DX2                !
 ! R14   R(3,37)                 3.7145         estimate D2E/DX2                !
 ! R15   R(3,38)                 3.0138         estimate D2E/DX2                !
 ! R16   R(3,39)                 3.5179         estimate D2E/DX2                !
 ! R17   R(4,6)                  1.4284         estimate D2E/DX2                !
 ! R18   R(4,10)                 1.4214         estimate D2E/DX2                !
 ! R19   R(4,37)                 3.7128         estimate D2E/DX2                !
 ! R20   R(4,38)                 3.5144         estimate D2E/DX2                !
 ! R21   R(4,39)                 3.009          estimate D2E/DX2                !
 ! R22   R(5,6)                  1.4288         estimate D2E/DX2                !
 ! R23   R(5,11)                 1.4217         estimate D2E/DX2                !
 ! R24   R(5,37)                 3.7151         estimate D2E/DX2                !
 ! R25   R(5,38)                 3.3758         estimate D2E/DX2                !
 ! R26   R(5,39)                 3.1734         estimate D2E/DX2                !
 ! R27   R(6,12)                 1.4222         estimate D2E/DX2                !
 ! R28   R(6,37)                 3.7135         estimate D2E/DX2                !
 ! R29   R(6,38)                 3.6091         estimate D2E/DX2                !
 ! R30   R(6,39)                 2.899          estimate D2E/DX2                !
 ! R31   R(7,13)                 1.4241         estimate D2E/DX2                !
 ! R32   R(7,15)                 1.4241         estimate D2E/DX2                !
 ! R33   R(7,38)                 3.4881         estimate D2E/DX2                !
 ! R34   R(8,14)                 1.4241         estimate D2E/DX2                !
 ! R35   R(8,23)                 1.4241         estimate D2E/DX2                !
 ! R36   R(9,18)                 1.424          estimate D2E/DX2                !
 ! R37   R(9,21)                 1.424          estimate D2E/DX2                !
 ! R38   R(9,38)                 3.6809         estimate D2E/DX2                !
 ! R39   R(10,16)                1.424          estimate D2E/DX2                !
 ! R40   R(10,24)                1.424          estimate D2E/DX2                !
 ! R41   R(10,39)                3.6734         estimate D2E/DX2                !
 ! R42   R(11,17)                1.4241         estimate D2E/DX2                !
 ! R43   R(11,20)                1.4241         estimate D2E/DX2                !
 ! R44   R(12,19)                1.4241         estimate D2E/DX2                !
 ! R45   R(12,22)                1.4241         estimate D2E/DX2                !
 ! R46   R(12,39)                3.4927         estimate D2E/DX2                !
 ! R47   R(13,21)                1.3723         estimate D2E/DX2                !
 ! R48   R(13,25)                1.0873         estimate D2E/DX2                !
 ! R49   R(14,15)                1.3724         estimate D2E/DX2                !
 ! R50   R(14,26)                1.0873         estimate D2E/DX2                !
 ! R51   R(15,27)                1.0873         estimate D2E/DX2                !
 ! R52   R(16,19)                1.3723         estimate D2E/DX2                !
 ! R53   R(16,32)                1.0872         estimate D2E/DX2                !
 ! R54   R(17,22)                1.3724         estimate D2E/DX2                !
 ! R55   R(17,29)                1.0873         estimate D2E/DX2                !
 ! R56   R(18,20)                1.3722         estimate D2E/DX2                !
 ! R57   R(18,34)                1.0872         estimate D2E/DX2                !
 ! R58   R(19,28)                1.0873         estimate D2E/DX2                !
 ! R59   R(20,31)                1.0872         estimate D2E/DX2                !
 ! R60   R(21,30)                1.0872         estimate D2E/DX2                !
 ! R61   R(22,35)                1.0873         estimate D2E/DX2                !
 ! R62   R(23,24)                1.3722         estimate D2E/DX2                !
 ! R63   R(23,33)                1.0872         estimate D2E/DX2                !
 ! R64   R(24,36)                1.0872         estimate D2E/DX2                !
 ! R65   R(37,38)                1.0272         estimate D2E/DX2                !
 ! R66   R(37,39)                1.0287         estimate D2E/DX2                !
 ! A1    A(2,1,3)              120.0118         estimate D2E/DX2                !
 ! A2    A(2,1,7)              120.0036         estimate D2E/DX2                !
 ! A3    A(3,1,7)              119.9846         estimate D2E/DX2                !
 ! A4    A(7,1,37)             112.5828         estimate D2E/DX2                !
 ! A5    A(7,1,39)             128.2758         estimate D2E/DX2                !
 ! A6    A(38,1,39)             26.9552         estimate D2E/DX2                !
 ! A7    A(1,2,4)              120.0026         estimate D2E/DX2                !
 ! A8    A(1,2,8)              119.9974         estimate D2E/DX2                !
 ! A9    A(4,2,8)              120.0            estimate D2E/DX2                !
 ! A10   A(8,2,37)             112.582          estimate D2E/DX2                !
 ! A11   A(8,2,38)             112.0836         estimate D2E/DX2                !
 ! A12   A(8,2,39)             119.4121         estimate D2E/DX2                !
 ! A13   A(38,2,39)             29.3164         estimate D2E/DX2                !
 ! A14   A(1,3,5)              119.9857         estimate D2E/DX2                !
 ! A15   A(1,3,9)              120.0054         estimate D2E/DX2                !
 ! A16   A(5,3,9)              120.0088         estimate D2E/DX2                !
 ! A17   A(9,3,37)             112.7321         estimate D2E/DX2                !
 ! A18   A(9,3,39)             124.9204         estimate D2E/DX2                !
 ! A19   A(38,3,39)             28.2152         estimate D2E/DX2                !
 ! A20   A(2,4,6)              119.9854         estimate D2E/DX2                !
 ! A21   A(2,4,10)             120.0092         estimate D2E/DX2                !
 ! A22   A(6,4,10)             120.0054         estimate D2E/DX2                !
 ! A23   A(10,4,37)            112.67           estimate D2E/DX2                !
 ! A24   A(10,4,38)            124.7754         estimate D2E/DX2                !
 ! A25   A(38,4,39)             28.2445         estimate D2E/DX2                !
 ! A26   A(3,5,6)              120.0025         estimate D2E/DX2                !
 ! A27   A(3,5,11)             120.0004         estimate D2E/DX2                !
 ! A28   A(6,5,11)             119.9971         estimate D2E/DX2                !
 ! A29   A(11,5,37)            112.7424         estimate D2E/DX2                !
 ! A30   A(11,5,38)            119.6456         estimate D2E/DX2                !
 ! A31   A(11,5,39)            112.3343         estimate D2E/DX2                !
 ! A32   A(38,5,39)             29.2548         estimate D2E/DX2                !
 ! A33   A(4,6,5)              120.0118         estimate D2E/DX2                !
 ! A34   A(4,6,12)             119.9844         estimate D2E/DX2                !
 ! A35   A(5,6,12)             120.0037         estimate D2E/DX2                !
 ! A36   A(12,6,37)            112.6801         estimate D2E/DX2                !
 ! A37   A(12,6,38)            128.363          estimate D2E/DX2                !
 ! A38   A(38,6,39)             26.9315         estimate D2E/DX2                !
 ! A39   A(1,7,13)             118.7437         estimate D2E/DX2                !
 ! A40   A(1,7,15)             118.7263         estimate D2E/DX2                !
 ! A41   A(13,7,15)            122.53           estimate D2E/DX2                !
 ! A42   A(13,7,38)            103.5119         estimate D2E/DX2                !
 ! A43   A(15,7,38)            109.2197         estimate D2E/DX2                !
 ! A44   A(2,8,14)             118.7377         estimate D2E/DX2                !
 ! A45   A(2,8,23)             118.7431         estimate D2E/DX2                !
 ! A46   A(14,8,23)            122.5187         estimate D2E/DX2                !
 ! A47   A(3,9,18)             118.749          estimate D2E/DX2                !
 ! A48   A(3,9,21)             118.758          estimate D2E/DX2                !
 ! A49   A(18,9,21)            122.493          estimate D2E/DX2                !
 ! A50   A(18,9,38)            116.2754         estimate D2E/DX2                !
 ! A51   A(21,9,38)             98.8155         estimate D2E/DX2                !
 ! A52   A(4,10,16)            118.7585         estimate D2E/DX2                !
 ! A53   A(4,10,24)            118.7489         estimate D2E/DX2                !
 ! A54   A(16,10,24)           122.4926         estimate D2E/DX2                !
 ! A55   A(16,10,39)            98.9349         estimate D2E/DX2                !
 ! A56   A(24,10,39)           116.0691         estimate D2E/DX2                !
 ! A57   A(5,11,17)            118.738          estimate D2E/DX2                !
 ! A58   A(5,11,20)            118.7435         estimate D2E/DX2                !
 ! A59   A(17,11,20)           122.5182         estimate D2E/DX2                !
 ! A60   A(6,12,19)            118.7433         estimate D2E/DX2                !
 ! A61   A(6,12,22)            118.7261         estimate D2E/DX2                !
 ! A62   A(19,12,22)           122.5306         estimate D2E/DX2                !
 ! A63   A(19,12,39)           103.333          estimate D2E/DX2                !
 ! A64   A(22,12,39)           109.4589         estimate D2E/DX2                !
 ! A65   A(7,13,21)            121.2448         estimate D2E/DX2                !
 ! A66   A(7,13,25)            118.6027         estimate D2E/DX2                !
 ! A67   A(21,13,25)           120.1518         estimate D2E/DX2                !
 ! A68   A(8,14,15)            121.2801         estimate D2E/DX2                !
 ! A69   A(8,14,26)            118.5989         estimate D2E/DX2                !
 ! A70   A(15,14,26)           120.121          estimate D2E/DX2                !
 ! A71   A(7,15,14)            121.2549         estimate D2E/DX2                !
 ! A72   A(7,15,27)            118.6073         estimate D2E/DX2                !
 ! A73   A(14,15,27)           120.1378         estimate D2E/DX2                !
 ! A74   A(10,16,19)           121.2628         estimate D2E/DX2                !
 ! A75   A(10,16,32)           118.588          estimate D2E/DX2                !
 ! A76   A(19,16,32)           120.1491         estimate D2E/DX2                !
 ! A77   A(11,17,22)           121.2803         estimate D2E/DX2                !
 ! A78   A(11,17,29)           118.599          estimate D2E/DX2                !
 ! A79   A(22,17,29)           120.1206         estimate D2E/DX2                !
 ! A80   A(9,18,20)            121.2509         estimate D2E/DX2                !
 ! A81   A(9,18,34)            118.6104         estimate D2E/DX2                !
 ! A82   A(20,18,34)           120.1385         estimate D2E/DX2                !
 ! A83   A(12,19,16)           121.2456         estimate D2E/DX2                !
 ! A84   A(12,19,28)           118.6022         estimate D2E/DX2                !
 ! A85   A(16,19,28)           120.1515         estimate D2E/DX2                !
 ! A86   A(11,20,18)           121.246          estimate D2E/DX2                !
 ! A87   A(11,20,31)           118.607          estimate D2E/DX2                !
 ! A88   A(18,20,31)           120.145          estimate D2E/DX2                !
 ! A89   A(9,21,13)            121.2635         estimate D2E/DX2                !
 ! A90   A(9,21,30)            118.5881         estimate D2E/DX2                !
 ! A91   A(13,21,30)           120.1484         estimate D2E/DX2                !
 ! A92   A(12,22,17)           121.2548         estimate D2E/DX2                !
 ! A93   A(12,22,35)           118.6074         estimate D2E/DX2                !
 ! A94   A(17,22,35)           120.1378         estimate D2E/DX2                !
 ! A95   A(8,23,24)            121.2465         estimate D2E/DX2                !
 ! A96   A(8,23,33)            118.6066         estimate D2E/DX2                !
 ! A97   A(24,23,33)           120.1449         estimate D2E/DX2                !
 ! A98   A(10,24,23)           121.2506         estimate D2E/DX2                !
 ! A99   A(10,24,36)           118.6103         estimate D2E/DX2                !
 ! A100  A(23,24,36)           120.1389         estimate D2E/DX2                !
 ! A101  A(1,37,4)              38.933          estimate D2E/DX2                !
 ! A102  A(1,37,5)              38.9125         estimate D2E/DX2                !
 ! A103  A(1,37,6)              45.252          estimate D2E/DX2                !
 ! A104  A(2,37,3)              38.9337         estimate D2E/DX2                !
 ! A105  A(2,37,5)              45.2499         estimate D2E/DX2                !
 ! A106  A(2,37,6)              38.9215         estimate D2E/DX2                !
 ! A107  A(3,37,4)              45.2494         estimate D2E/DX2                !
 ! A108  A(3,37,6)              38.9092         estimate D2E/DX2                !
 ! A109  A(4,37,5)              38.9195         estimate D2E/DX2                !
 ! A110  A(38,37,39)           108.2054         estimate D2E/DX2                !
 ! A111  A(1,38,4)              44.1            estimate D2E/DX2                !
 ! A112  A(1,38,5)              45.6618         estimate D2E/DX2                !
 ! A113  A(1,38,6)              50.6475         estimate D2E/DX2                !
 ! A114  A(1,38,9)              41.9976         estimate D2E/DX2                !
 ! A115  A(2,38,3)              47.1225         estimate D2E/DX2                !
 ! A116  A(2,38,5)              51.6575         estimate D2E/DX2                !
 ! A117  A(2,38,6)              42.1907         estimate D2E/DX2                !
 ! A118  A(2,38,7)              43.2206         estimate D2E/DX2                !
 ! A119  A(2,38,9)              66.3788         estimate D2E/DX2                !
 ! A120  A(3,38,4)              51.2117         estimate D2E/DX2                !
 ! A121  A(3,38,6)              42.6975         estimate D2E/DX2                !
 ! A122  A(3,38,7)              43.8749         estimate D2E/DX2                !
 ! A123  A(4,38,5)              42.0347         estimate D2E/DX2                !
 ! A124  A(4,38,7)              65.2077         estimate D2E/DX2                !
 ! A125  A(4,38,9)              72.9332         estimate D2E/DX2                !
 ! A126  A(5,38,7)              66.6617         estimate D2E/DX2                !
 ! A127  A(5,38,9)              40.649          estimate D2E/DX2                !
 ! A128  A(6,38,7)              74.125          estimate D2E/DX2                !
 ! A129  A(6,38,9)              62.3215         estimate D2E/DX2                !
 ! A130  A(7,38,9)              46.7552         estimate D2E/DX2                !
 ! A131  A(7,38,37)            157.5854         estimate D2E/DX2                !
 ! A132  A(9,38,37)            134.4378         estimate D2E/DX2                !
 ! A133  A(1,39,4)              42.7405         estimate D2E/DX2                !
 ! A134  A(1,39,5)              42.192          estimate D2E/DX2                !
 ! A135  A(1,39,6)              50.6705         estimate D2E/DX2                !
 ! A136  A(1,39,10)             62.4202         estimate D2E/DX2                !
 ! A137  A(1,39,12)             74.1047         estimate D2E/DX2                !
 ! A138  A(2,39,3)              42.0468         estimate D2E/DX2                !
 ! A139  A(2,39,5)              51.6748         estimate D2E/DX2                !
 ! A140  A(2,39,6)              45.7254         estimate D2E/DX2                !
 ! A141  A(2,39,10)             40.7369         estimate D2E/DX2                !
 ! A142  A(2,39,12)             66.6809         estimate D2E/DX2                !
 ! A143  A(3,39,4)              51.1995         estimate D2E/DX2                !
 ! A144  A(3,39,6)              44.0521         estimate D2E/DX2                !
 ! A145  A(3,39,10)             72.9863         estimate D2E/DX2                !
 ! A146  A(3,39,12)             65.1235         estimate D2E/DX2                !
 ! A147  A(4,39,5)              47.0962         estimate D2E/DX2                !
 ! A148  A(4,39,12)             43.8457         estimate D2E/DX2                !
 ! A149  A(5,39,10)             66.4163         estimate D2E/DX2                !
 ! A150  A(5,39,12)             43.1487         estimate D2E/DX2                !
 ! A151  A(6,39,10)             42.086          estimate D2E/DX2                !
 ! A152  A(10,39,12)            46.7868         estimate D2E/DX2                !
 ! A153  A(10,39,37)           134.761          estimate D2E/DX2                !
 ! A154  A(12,39,37)           157.2895         estimate D2E/DX2                !
 ! D1    D(3,1,2,4)              0.0723         estimate D2E/DX2                !
 ! D2    D(3,1,2,8)           -179.8903         estimate D2E/DX2                !
 ! D3    D(7,1,2,4)            179.9628         estimate D2E/DX2                !
 ! D4    D(7,1,2,8)              0.0002         estimate D2E/DX2                !
 ! D5    D(2,1,3,5)             -0.1345         estimate D2E/DX2                !
 ! D6    D(2,1,3,9)            179.8756         estimate D2E/DX2                !
 ! D7    D(7,1,3,5)            179.975          estimate D2E/DX2                !
 ! D8    D(7,1,3,9)             -0.0148         estimate D2E/DX2                !
 ! D9    D(2,1,7,13)          -179.8983         estimate D2E/DX2                !
 ! D10   D(2,1,7,15)             0.041          estimate D2E/DX2                !
 ! D11   D(3,1,7,13)            -0.0078         estimate D2E/DX2                !
 ! D12   D(3,1,7,15)           179.9315         estimate D2E/DX2                !
 ! D13   D(37,1,7,13)           90.1377         estimate D2E/DX2                !
 ! D14   D(37,1,7,15)          -89.923          estimate D2E/DX2                !
 ! D15   D(39,1,7,13)           94.2373         estimate D2E/DX2                !
 ! D16   D(39,1,7,15)          -85.8234         estimate D2E/DX2                !
 ! D17   D(7,1,37,4)           147.9744         estimate D2E/DX2                !
 ! D18   D(7,1,37,5)          -147.9802         estimate D2E/DX2                !
 ! D19   D(7,1,37,6)           179.9997         estimate D2E/DX2                !
 ! D20   D(39,1,38,4)          -16.2507         estimate D2E/DX2                !
 ! D21   D(39,1,38,5)           44.8099         estimate D2E/DX2                !
 ! D22   D(39,1,38,6)           14.0596         estimate D2E/DX2                !
 ! D23   D(39,1,38,9)          104.8047         estimate D2E/DX2                !
 ! D24   D(7,1,39,4)           142.8197         estimate D2E/DX2                !
 ! D25   D(7,1,39,5)          -144.6227         estimate D2E/DX2                !
 ! D26   D(7,1,39,6)           179.9991         estimate D2E/DX2                !
 ! D27   D(7,1,39,10)          130.8779         estimate D2E/DX2                !
 ! D28   D(7,1,39,12)          179.999          estimate D2E/DX2                !
 ! D29   D(38,1,39,4)          160.4185         estimate D2E/DX2                !
 ! D30   D(38,1,39,5)         -127.0239         estimate D2E/DX2                !
 ! D31   D(38,1,39,6)         -162.4021         estimate D2E/DX2                !
 ! D32   D(38,1,39,10)         148.4767         estimate D2E/DX2                !
 ! D33   D(38,1,39,12)        -162.4022         estimate D2E/DX2                !
 ! D34   D(1,2,4,6)              0.0596         estimate D2E/DX2                !
 ! D35   D(1,2,4,10)          -179.948          estimate D2E/DX2                !
 ! D36   D(8,2,4,6)           -179.9778         estimate D2E/DX2                !
 ! D37   D(8,2,4,10)             0.0146         estimate D2E/DX2                !
 ! D38   D(1,2,8,14)            -0.0326         estimate D2E/DX2                !
 ! D39   D(1,2,8,23)           179.7449         estimate D2E/DX2                !
 ! D40   D(4,2,8,14)          -179.9952         estimate D2E/DX2                !
 ! D41   D(4,2,8,23)            -0.2177         estimate D2E/DX2                !
 ! D42   D(37,2,8,14)           89.9309         estimate D2E/DX2                !
 ! D43   D(37,2,8,23)          -90.2916         estimate D2E/DX2                !
 ! D44   D(38,2,8,14)           74.1448         estimate D2E/DX2                !
 ! D45   D(38,2,8,23)         -106.0776         estimate D2E/DX2                !
 ! D46   D(39,2,8,14)          105.7741         estimate D2E/DX2                !
 ! D47   D(39,2,8,23)          -74.4484         estimate D2E/DX2                !
 ! D48   D(8,2,37,3)          -147.9778         estimate D2E/DX2                !
 ! D49   D(8,2,37,5)          -179.9748         estimate D2E/DX2                !
 ! D50   D(8,2,37,6)           148.0026         estimate D2E/DX2                !
 ! D51   D(8,2,38,3)          -147.3506         estimate D2E/DX2                !
 ! D52   D(8,2,38,5)          -179.965          estimate D2E/DX2                !
 ! D53   D(8,2,38,6)           150.6163         estimate D2E/DX2                !
 ! D54   D(8,2,38,7)           -83.9897         estimate D2E/DX2                !
 ! D55   D(8,2,38,9)          -135.1926         estimate D2E/DX2                !
 ! D56   D(39,2,38,3)          101.5571         estimate D2E/DX2                !
 ! D57   D(39,2,38,5)           68.9427         estimate D2E/DX2                !
 ! D58   D(39,2,38,6)           39.524          estimate D2E/DX2                !
 ! D59   D(39,2,38,7)          164.9179         estimate D2E/DX2                !
 ! D60   D(39,2,38,9)          113.7151         estimate D2E/DX2                !
 ! D61   D(8,2,39,3)          -149.6551         estimate D2E/DX2                !
 ! D62   D(8,2,39,5)          -179.9858         estimate D2E/DX2                !
 ! D63   D(8,2,39,6)           145.0344         estimate D2E/DX2                !
 ! D64   D(8,2,39,10)           82.1793         estimate D2E/DX2                !
 ! D65   D(8,2,39,12)          132.2338         estimate D2E/DX2                !
 ! D66   D(38,2,39,3)          -66.6894         estimate D2E/DX2                !
 ! D67   D(38,2,39,5)          -97.0202         estimate D2E/DX2                !
 ! D68   D(38,2,39,6)         -132.0            estimate D2E/DX2                !
 ! D69   D(38,2,39,10)         165.1449         estimate D2E/DX2                !
 ! D70   D(38,2,39,12)        -144.8006         estimate D2E/DX2                !
 ! D71   D(1,3,5,6)              0.0648         estimate D2E/DX2                !
 ! D72   D(1,3,5,11)          -179.9763         estimate D2E/DX2                !
 ! D73   D(9,3,5,6)           -179.9454         estimate D2E/DX2                !
 ! D74   D(9,3,5,11)             0.0136         estimate D2E/DX2                !
 ! D75   D(1,3,9,18)           179.9712         estimate D2E/DX2                !
 ! D76   D(1,3,9,21)             0.0091         estimate D2E/DX2                !
 ! D77   D(5,3,9,18)            -0.0187         estimate D2E/DX2                !
 ! D78   D(5,3,9,21)          -179.9807         estimate D2E/DX2                !
 ! D79   D(37,3,9,18)           90.0871         estimate D2E/DX2                !
 ! D80   D(37,3,9,21)          -89.8749         estimate D2E/DX2                !
 ! D81   D(39,3,9,18)           78.107          estimate D2E/DX2                !
 ! D82   D(39,3,9,21)         -101.855          estimate D2E/DX2                !
 ! D83   D(9,3,37,2)           147.9586         estimate D2E/DX2                !
 ! D84   D(9,3,37,4)           179.9849         estimate D2E/DX2                !
 ! D85   D(9,3,37,6)          -147.9905         estimate D2E/DX2                !
 ! D86   D(39,3,38,2)          -76.3342         estimate D2E/DX2                !
 ! D87   D(39,3,38,4)          -44.9399         estimate D2E/DX2                !
 ! D88   D(39,3,38,6)          -15.3227         estimate D2E/DX2                !
 ! D89   D(39,3,38,7)         -138.3617         estimate D2E/DX2                !
 ! D90   D(9,3,39,2)           147.5646         estimate D2E/DX2                !
 ! D91   D(9,3,39,4)          -179.9973         estimate D2E/DX2                !
 ! D92   D(9,3,39,6)          -143.1068         estimate D2E/DX2                !
 ! D93   D(9,3,39,10)         -179.9854         estimate D2E/DX2                !
 ! D94   D(9,3,39,12)         -130.3313         estimate D2E/DX2                !
 ! D95   D(38,3,39,2)           91.957          estimate D2E/DX2                !
 ! D96   D(38,3,39,4)          124.3952         estimate D2E/DX2                !
 ! D97   D(38,3,39,6)          161.2857         estimate D2E/DX2                !
 ! D98   D(38,3,39,10)         124.4071         estimate D2E/DX2                !
 ! D99   D(38,3,39,12)         174.0611         estimate D2E/DX2                !
 ! D100  D(2,4,6,5)             -0.1293         estimate D2E/DX2                !
 ! D101  D(2,4,6,12)           179.9754         estimate D2E/DX2                !
 ! D102  D(10,4,6,5)           179.8783         estimate D2E/DX2                !
 ! D103  D(10,4,6,12)           -0.017          estimate D2E/DX2                !
 ! D104  D(2,4,10,16)         -179.9831         estimate D2E/DX2                !
 ! D105  D(2,4,10,24)           -0.0181         estimate D2E/DX2                !
 ! D106  D(6,4,10,16)            0.0093         estimate D2E/DX2                !
 ! D107  D(6,4,10,24)          179.9743         estimate D2E/DX2                !
 ! D108  D(37,4,10,16)         -90.0513         estimate D2E/DX2                !
 ! D109  D(37,4,10,24)          89.9137         estimate D2E/DX2                !
 ! D110  D(38,4,10,16)        -102.0968         estimate D2E/DX2                !
 ! D111  D(38,4,10,24)          77.8682         estimate D2E/DX2                !
 ! D112  D(10,4,37,1)         -147.9832         estimate D2E/DX2                !
 ! D113  D(10,4,37,3)          179.985          estimate D2E/DX2                !
 ! D114  D(10,4,37,5)          147.9892         estimate D2E/DX2                !
 ! D115  D(10,4,38,1)         -143.1438         estimate D2E/DX2                !
 ! D116  D(10,4,38,3)         -179.9971         estimate D2E/DX2                !
 ! D117  D(10,4,38,5)          147.6617         estimate D2E/DX2                !
 ! D118  D(10,4,38,7)         -130.3484         estimate D2E/DX2                !
 ! D119  D(10,4,38,9)         -179.9852         estimate D2E/DX2                !
 ! D120  D(39,4,38,1)          161.2605         estimate D2E/DX2                !
 ! D121  D(39,4,38,3)          124.4071         estimate D2E/DX2                !
 ! D122  D(39,4,38,5)           92.066          estimate D2E/DX2                !
 ! D123  D(39,4,38,7)          174.0559         estimate D2E/DX2                !
 ! D124  D(39,4,38,9)          124.4191         estimate D2E/DX2                !
 ! D125  D(38,4,39,1)          -15.3416         estimate D2E/DX2                !
 ! D126  D(38,4,39,3)          -44.9859         estimate D2E/DX2                !
 ! D127  D(38,4,39,5)          -76.3544         estimate D2E/DX2                !
 ! D128  D(38,4,39,12)        -138.3048         estimate D2E/DX2                !
 ! D129  D(3,5,6,4)              0.0672         estimate D2E/DX2                !
 ! D130  D(3,5,6,12)           179.9624         estimate D2E/DX2                !
 ! D131  D(11,5,6,4)          -179.8918         estimate D2E/DX2                !
 ! D132  D(11,5,6,12)            0.0034         estimate D2E/DX2                !
 ! D133  D(3,5,11,17)         -179.9943         estimate D2E/DX2                !
 ! D134  D(3,5,11,20)           -0.2159         estimate D2E/DX2                !
 ! D135  D(6,5,11,17)           -0.0354         estimate D2E/DX2                !
 ! D136  D(6,5,11,20)          179.7431         estimate D2E/DX2                !
 ! D137  D(37,5,11,17)          89.9549         estimate D2E/DX2                !
 ! D138  D(37,5,11,20)         -90.2666         estimate D2E/DX2                !
 ! D139  D(38,5,11,17)         105.7404         estimate D2E/DX2                !
 ! D140  D(38,5,11,20)         -74.4812         estimate D2E/DX2                !
 ! D141  D(39,5,11,17)          74.1108         estimate D2E/DX2                !
 ! D142  D(39,5,11,20)        -106.1107         estimate D2E/DX2                !
 ! D143  D(11,5,37,1)          147.97           estimate D2E/DX2                !
 ! D144  D(11,5,37,2)         -179.9746         estimate D2E/DX2                !
 ! D145  D(11,5,37,4)         -147.9502         estimate D2E/DX2                !
 ! D146  D(11,5,38,1)          144.9485         estimate D2E/DX2                !
 ! D147  D(11,5,38,2)         -179.9859         estimate D2E/DX2                !
 ! D148  D(11,5,38,4)         -149.6086         estimate D2E/DX2                !
 ! D149  D(11,5,38,7)          132.1309         estimate D2E/DX2                !
 ! D150  D(11,5,38,9)           82.1408         estimate D2E/DX2                !
 ! D151  D(39,5,38,1)         -132.0208         estimate D2E/DX2                !
 ! D152  D(39,5,38,2)          -96.9552         estimate D2E/DX2                !
 ! D153  D(39,5,38,4)          -66.5779         estimate D2E/DX2                !
 ! D154  D(39,5,38,7)         -144.8384         estimate D2E/DX2                !
 ! D155  D(39,5,38,9)          165.1715         estimate D2E/DX2                !
 ! D156  D(11,5,39,1)          150.5983         estimate D2E/DX2                !
 ! D157  D(11,5,39,2)         -179.9645         estimate D2E/DX2                !
 ! D158  D(11,5,39,4)         -147.2821         estimate D2E/DX2                !
 ! D159  D(11,5,39,10)        -135.1017         estimate D2E/DX2                !
 ! D160  D(11,5,39,12)         -83.9111         estimate D2E/DX2                !
 ! D161  D(38,5,39,1)           39.4493         estimate D2E/DX2                !
 ! D162  D(38,5,39,2)           68.8864         estimate D2E/DX2                !
 ! D163  D(38,5,39,4)          101.5688         estimate D2E/DX2                !
 ! D164  D(38,5,39,10)         113.7493         estimate D2E/DX2                !
 ! D165  D(38,5,39,12)         164.9399         estimate D2E/DX2                !
 ! D166  D(4,6,12,19)           -0.005          estimate D2E/DX2                !
 ! D167  D(4,6,12,22)          179.9345         estimate D2E/DX2                !
 ! D168  D(5,6,12,19)         -179.9002         estimate D2E/DX2                !
 ! D169  D(5,6,12,22)            0.0392         estimate D2E/DX2                !
 ! D170  D(37,6,12,19)          89.9879         estimate D2E/DX2                !
 ! D171  D(37,6,12,22)         -90.0727         estimate D2E/DX2                !
 ! D172  D(38,6,12,19)          93.952          estimate D2E/DX2                !
 ! D173  D(38,6,12,22)         -86.1085         estimate D2E/DX2                !
 ! D174  D(12,6,37,1)          179.9997         estimate D2E/DX2                !
 ! D175  D(12,6,37,2)         -147.9455         estimate D2E/DX2                !
 ! D176  D(12,6,37,3)          147.9724         estimate D2E/DX2                !
 ! D177  D(12,6,38,1)          179.9993         estimate D2E/DX2                !
 ! D178  D(12,6,38,2)         -144.5232         estimate D2E/DX2                !
 ! D179  D(12,6,38,3)          142.8386         estimate D2E/DX2                !
 ! D180  D(12,6,38,7)          179.9992         estimate D2E/DX2                !
 ! D181  D(12,6,38,9)          130.9306         estimate D2E/DX2                !
 ! D182  D(39,6,38,1)         -162.3951         estimate D2E/DX2                !
 ! D183  D(39,6,38,2)         -126.9176         estimate D2E/DX2                !
 ! D184  D(39,6,38,3)          160.4442         estimate D2E/DX2                !
 ! D185  D(39,6,38,7)         -162.3952         estimate D2E/DX2                !
 ! D186  D(39,6,38,9)          148.5362         estimate D2E/DX2                !
 ! D187  D(38,6,39,1)           14.0537         estimate D2E/DX2                !
 ! D188  D(38,6,39,2)           44.8239         estimate D2E/DX2                !
 ! D189  D(38,6,39,3)          -16.2406         estimate D2E/DX2                !
 ! D190  D(38,6,39,10)         104.8681         estimate D2E/DX2                !
 ! D191  D(1,7,13,21)            0.0376         estimate D2E/DX2                !
 ! D192  D(1,7,13,25)         -179.6636         estimate D2E/DX2                !
 ! D193  D(15,7,13,21)        -179.8993         estimate D2E/DX2                !
 ! D194  D(15,7,13,25)           0.3995         estimate D2E/DX2                !
 ! D195  D(38,7,13,21)          56.4019         estimate D2E/DX2                !
 ! D196  D(38,7,13,25)        -123.2993         estimate D2E/DX2                !
 ! D197  D(1,7,15,14)           -0.0509         estimate D2E/DX2                !
 ! D198  D(1,7,15,27)          179.9454         estimate D2E/DX2                !
 ! D199  D(13,7,15,14)         179.886          estimate D2E/DX2                !
 ! D200  D(13,7,15,27)          -0.1177         estimate D2E/DX2                !
 ! D201  D(38,7,15,14)         -59.0606         estimate D2E/DX2                !
 ! D202  D(38,7,15,27)         120.9357         estimate D2E/DX2                !
 ! D203  D(13,7,38,2)         -150.5712         estimate D2E/DX2                !
 ! D204  D(13,7,38,3)          -79.6484         estimate D2E/DX2                !
 ! D205  D(13,7,38,4)         -138.6375         estimate D2E/DX2                !
 ! D206  D(13,7,38,5)          -92.4068         estimate D2E/DX2                !
 ! D207  D(13,7,38,6)         -115.8774         estimate D2E/DX2                !
 ! D208  D(13,7,38,9)          -49.1743         estimate D2E/DX2                !
 ! D209  D(13,7,38,37)        -153.0856         estimate D2E/DX2                !
 ! D210  D(15,7,38,2)           77.403          estimate D2E/DX2                !
 ! D211  D(15,7,38,3)          148.3258         estimate D2E/DX2                !
 ! D212  D(15,7,38,4)           89.3367         estimate D2E/DX2                !
 ! D213  D(15,7,38,5)          135.5674         estimate D2E/DX2                !
 ! D214  D(15,7,38,6)          112.0967         estimate D2E/DX2                !
 ! D215  D(15,7,38,9)          178.7999         estimate D2E/DX2                !
 ! D216  D(15,7,38,37)          74.8885         estimate D2E/DX2                !
 ! D217  D(2,8,14,15)            0.0237         estimate D2E/DX2                !
 ! D218  D(2,8,14,26)         -179.9298         estimate D2E/DX2                !
 ! D219  D(23,8,14,15)        -179.745          estimate D2E/DX2                !
 ! D220  D(23,8,14,26)           0.3015         estimate D2E/DX2                !
 ! D221  D(2,8,23,24)            0.441          estimate D2E/DX2                !
 ! D222  D(2,8,23,33)          179.9295         estimate D2E/DX2                !
 ! D223  D(14,8,23,24)        -179.7904         estimate D2E/DX2                !
 ! D224  D(14,8,23,33)          -0.3019         estimate D2E/DX2                !
 ! D225  D(3,9,18,20)            0.2403         estimate D2E/DX2                !
 ! D226  D(3,9,18,34)         -179.9191         estimate D2E/DX2                !
 ! D227  D(21,9,18,20)        -179.7992         estimate D2E/DX2                !
 ! D228  D(21,9,18,34)           0.0414         estimate D2E/DX2                !
 ! D229  D(38,9,18,20)          59.065          estimate D2E/DX2                !
 ! D230  D(38,9,18,34)        -121.0944         estimate D2E/DX2                !
 ! D231  D(3,9,21,13)            0.0204         estimate D2E/DX2                !
 ! D232  D(3,9,21,30)          179.9326         estimate D2E/DX2                !
 ! D233  D(18,9,21,13)        -179.9401         estimate D2E/DX2                !
 ! D234  D(18,9,21,30)          -0.028          estimate D2E/DX2                !
 ! D235  D(38,9,21,13)         -50.8977         estimate D2E/DX2                !
 ! D236  D(38,9,21,30)         129.0145         estimate D2E/DX2                !
 ! D237  D(18,9,38,1)         -145.6787         estimate D2E/DX2                !
 ! D238  D(18,9,38,2)         -131.7181         estimate D2E/DX2                !
 ! D239  D(18,9,38,4)         -107.0969         estimate D2E/DX2                !
 ! D240  D(18,9,38,5)          -73.7265         estimate D2E/DX2                !
 ! D241  D(18,9,38,6)          -84.8571         estimate D2E/DX2                !
 ! D242  D(18,9,38,7)         -178.8309         estimate D2E/DX2                !
 ! D243  D(18,9,38,37)         -30.0539         estimate D2E/DX2                !
 ! D244  D(21,9,38,1)           81.2565         estimate D2E/DX2                !
 ! D245  D(21,9,38,2)           95.2171         estimate D2E/DX2                !
 ! D246  D(21,9,38,4)          119.8382         estimate D2E/DX2                !
 ! D247  D(21,9,38,5)          153.2087         estimate D2E/DX2                !
 ! D248  D(21,9,38,6)          142.0781         estimate D2E/DX2                !
 ! D249  D(21,9,38,7)           48.1043         estimate D2E/DX2                !
 ! D250  D(21,9,38,37)        -163.1187         estimate D2E/DX2                !
 ! D251  D(4,10,16,19)           0.0214         estimate D2E/DX2                !
 ! D252  D(4,10,16,32)         179.934          estimate D2E/DX2                !
 ! D253  D(24,10,16,19)       -179.9422         estimate D2E/DX2                !
 ! D254  D(24,10,16,32)         -0.0296         estimate D2E/DX2                !
 ! D255  D(39,10,16,19)        -51.073          estimate D2E/DX2                !
 ! D256  D(39,10,16,32)        128.8396         estimate D2E/DX2                !
 ! D257  D(4,10,24,23)           0.2389         estimate D2E/DX2                !
 ! D258  D(4,10,24,36)        -179.9204         estimate D2E/DX2                !
 ! D259  D(16,10,24,23)       -179.7975         estimate D2E/DX2                !
 ! D260  D(16,10,24,36)          0.0432         estimate D2E/DX2                !
 ! D261  D(39,10,24,23)         59.0997         estimate D2E/DX2                !
 ! D262  D(39,10,24,36)       -121.0595         estimate D2E/DX2                !
 ! D263  D(16,10,39,1)         141.9736         estimate D2E/DX2                !
 ! D264  D(16,10,39,2)         153.1289         estimate D2E/DX2                !
 ! D265  D(16,10,39,3)         119.7162         estimate D2E/DX2                !
 ! D266  D(16,10,39,5)          95.1332         estimate D2E/DX2                !
 ! D267  D(16,10,39,6)          81.2124         estimate D2E/DX2                !
 ! D268  D(16,10,39,12)         48.1452         estimate D2E/DX2                !
 ! D269  D(16,10,39,37)       -163.5471         estimate D2E/DX2                !
 ! D270  D(24,10,39,1)         -85.0033         estimate D2E/DX2                !
 ! D271  D(24,10,39,2)         -73.848          estimate D2E/DX2                !
 ! D272  D(24,10,39,3)        -107.2607         estimate D2E/DX2                !
 ! D273  D(24,10,39,5)        -131.8437         estimate D2E/DX2                !
 ! D274  D(24,10,39,6)        -145.7644         estimate D2E/DX2                !
 ! D275  D(24,10,39,12)       -178.8317         estimate D2E/DX2                !
 ! D276  D(24,10,39,37)        -30.524          estimate D2E/DX2                !
 ! D277  D(5,11,17,22)           0.0246         estimate D2E/DX2                !
 ! D278  D(5,11,17,29)        -179.9279         estimate D2E/DX2                !
 ! D279  D(20,11,17,22)       -179.745          estimate D2E/DX2                !
 ! D280  D(20,11,17,29)          0.3025         estimate D2E/DX2                !
 ! D281  D(5,11,20,18)           0.44           estimate D2E/DX2                !
 ! D282  D(5,11,20,31)         179.9284         estimate D2E/DX2                !
 ! D283  D(17,11,20,18)       -179.7904         estimate D2E/DX2                !
 ! D284  D(17,11,20,31)         -0.302          estimate D2E/DX2                !
 ! D285  D(6,12,19,16)           0.0358         estimate D2E/DX2                !
 ! D286  D(6,12,19,28)        -179.6652         estimate D2E/DX2                !
 ! D287  D(22,12,19,16)       -179.9012         estimate D2E/DX2                !
 ! D288  D(22,12,19,28)          0.3978         estimate D2E/DX2                !
 ! D289  D(39,12,19,16)         56.2342         estimate D2E/DX2                !
 ! D290  D(39,12,19,28)       -123.4668         estimate D2E/DX2                !
 ! D291  D(6,12,22,17)          -0.051          estimate D2E/DX2                !
 ! D292  D(6,12,22,35)         179.9465         estimate D2E/DX2                !
 ! D293  D(19,12,22,17)        179.886          estimate D2E/DX2                !
 ! D294  D(19,12,22,35)         -0.1165         estimate D2E/DX2                !
 ! D295  D(39,12,22,17)        -59.0867         estimate D2E/DX2                !
 ! D296  D(39,12,22,35)        120.9108         estimate D2E/DX2                !
 ! D297  D(19,12,39,1)        -116.0055         estimate D2E/DX2                !
 ! D298  D(19,12,39,2)         -92.4968         estimate D2E/DX2                !
 ! D299  D(19,12,39,3)        -138.7495         estimate D2E/DX2                !
 ! D300  D(19,12,39,4)         -79.7018         estimate D2E/DX2                !
 ! D301  D(19,12,39,5)        -150.6566         estimate D2E/DX2                !
 ! D302  D(19,12,39,10)        -49.1453         estimate D2E/DX2                !
 ! D303  D(19,12,39,37)       -154.0816         estimate D2E/DX2                !
 ! D304  D(22,12,39,1)         111.9383         estimate D2E/DX2                !
 ! D305  D(22,12,39,2)         135.447          estimate D2E/DX2                !
 ! D306  D(22,12,39,3)          89.1942         estimate D2E/DX2                !
 ! D307  D(22,12,39,4)         148.242          estimate D2E/DX2                !
 ! D308  D(22,12,39,5)          77.2871         estimate D2E/DX2                !
 ! D309  D(22,12,39,10)        178.7985         estimate D2E/DX2                !
 ! D310  D(22,12,39,37)         73.8622         estimate D2E/DX2                !
 ! D311  D(7,13,21,9)           -0.0443         estimate D2E/DX2                !
 ! D312  D(7,13,21,30)        -179.9551         estimate D2E/DX2                !
 ! D313  D(25,13,21,9)         179.6523         estimate D2E/DX2                !
 ! D314  D(25,13,21,30)         -0.2585         estimate D2E/DX2                !
 ! D315  D(8,14,15,7)            0.0186         estimate D2E/DX2                !
 ! D316  D(8,14,15,27)        -179.9777         estimate D2E/DX2                !
 ! D317  D(26,14,15,7)         179.9713         estimate D2E/DX2                !
 ! D318  D(26,14,15,27)         -0.0249         estimate D2E/DX2                !
 ! D319  D(10,16,19,12)         -0.0445         estimate D2E/DX2                !
 ! D320  D(10,16,19,28)        179.652          estimate D2E/DX2                !
 ! D321  D(32,16,19,12)       -179.9558         estimate D2E/DX2                !
 ! D322  D(32,16,19,28)         -0.2593         estimate D2E/DX2                !
 ! D323  D(11,17,22,12)          0.0191         estimate D2E/DX2                !
 ! D324  D(11,17,22,35)       -179.9784         estimate D2E/DX2                !
 ! D325  D(29,17,22,12)        179.9708         estimate D2E/DX2                !
 ! D326  D(29,17,22,35)         -0.0266         estimate D2E/DX2                !
 ! D327  D(9,18,20,11)          -0.4567         estimate D2E/DX2                !
 ! D328  D(9,18,20,31)        -179.9373         estimate D2E/DX2                !
 ! D329  D(34,18,20,11)        179.7052         estimate D2E/DX2                !
 ! D330  D(34,18,20,31)          0.2246         estimate D2E/DX2                !
 ! D331  D(8,23,24,10)          -0.456          estimate D2E/DX2                !
 ! D332  D(8,23,24,36)         179.7056         estimate D2E/DX2                !
 ! D333  D(33,23,24,10)       -179.9367         estimate D2E/DX2                !
 ! D334  D(33,23,24,36)          0.2249         estimate D2E/DX2                !
 ! D335  D(39,37,38,7)          29.8657         estimate D2E/DX2                !
 ! D336  D(39,37,38,9)         -52.1368         estimate D2E/DX2                !
 ! D337  D(38,37,39,10)        -51.3517         estimate D2E/DX2                !
 ! D338  D(38,37,39,12)         31.2795         estimate D2E/DX2                !
 --------------------------------------------------------------------------------
 Trust Radius=3.00D-01 FncErr=1.00D-07 GrdErr=1.00D-06
 Number of steps in this run=    234 maximum allowed number of steps=    234.
 GradGradGradGradGradGradGradGradGradGradGradGradGradGradGradGradGradGrad

                          Input orientation:                          
 ---------------------------------------------------------------------
 Center     Atomic      Atomic             Coordinates (Angstroms)
 Number     Number       Type             X           Y           Z
 ---------------------------------------------------------------------
      1          6           0       -1.416264    0.181784   -0.197696
      2          6           0       -0.864845   -1.136284   -0.198605
      3          6           0       -0.550922    1.318285   -0.198797
      4          6           0        0.551468   -1.317728   -0.199053
      5          6           0        0.865387    1.136847   -0.197903
      6          6           0        1.416809   -0.181223   -0.197306
      7          6           0       -2.826953    0.362532   -0.198049
      8          6           0       -1.726376   -2.267186   -0.199867
      9          6           0       -1.099650    2.629508   -0.200564
     10          6           0        1.100202   -2.628950   -0.201074
     11          6           0        1.726915    2.267740   -0.198489
     12          6           0        2.827504   -0.361972   -0.197224
     13          6           0       -3.347570    1.688108   -0.199338
     14          6           0       -3.134553   -2.055157   -0.199487
     15          6           0       -3.664574   -0.789183   -0.198422
     16          6           0        2.516256   -2.779024   -0.201107
     17          6           0        3.135092    2.055713   -0.197695
     18          6           0       -0.212378    3.743269   -0.201002
     19          6           0        3.348112   -1.687552   -0.198798
     20          6           0        1.148709    3.569116   -0.204675
     21          6           0       -2.515707    2.779575   -0.201002
     22          6           0        3.665118    0.789743   -0.196891
     23          6           0       -1.148156   -3.568559   -0.206310
     24          6           0        0.212931   -3.742716   -0.202226
     25          1           0       -4.426332    1.823643   -0.194002
     26          1           0       -3.791336   -2.921642   -0.199285
     27          1           0       -4.742726   -0.648766   -0.197782
     28          1           0        4.426875   -1.823087   -0.193155
     29          1           0        3.791876    2.922198   -0.196944
     30          1           0       -2.932446    3.783751   -0.201231
     31          1           0        1.809626    4.432412   -0.203918
     32          1           0        2.932988   -3.783200   -0.201556
     33          1           0       -1.809073   -4.431855   -0.206088
     34          1           0       -0.634527    4.745212   -0.201007
     35          1           0        4.743270    0.649331   -0.195938
     36          1           0        0.635084   -4.744655   -0.202445
     37          8           0       -0.004302   -0.004333    3.228940
     38          1           0       -0.780837    0.293312    2.625975
     39          1           0        0.772632   -0.307018    2.626464
 ---------------------------------------------------------------------
                    Distance matrix (angstroms):
                    1          2          3          4          5
     1  C    0.000000
     2  C    1.428764   0.000000
     3  C    1.428444   2.474562   0.000000
     4  C    2.473966   1.427888   2.857241   0.000000
     5  C    2.473475   2.856716   1.427884   2.474568   0.000000
     6  C    2.856235   2.473477   2.473963   1.428447   1.428767
     7  C    1.422221   2.469072   2.468559   3.773195   3.772657
     8  C    2.468528   1.421681   3.773234   2.467802   4.278397
     9  C    2.468118   3.773106   1.421412   4.278652   2.467674
    10  C    3.772643   2.467685   4.278654   1.421413   3.773112
    11  C    3.772372   4.278387   2.467794   3.773229   1.421671
    12  C    4.278462   3.772665   3.773199   2.468565   2.469081
    13  C    2.449277   3.760467   2.820994   4.923164   4.248870
    14  C    2.820714   2.448653   4.249148   3.759063   5.117461
    15  C    2.449015   2.821163   3.759821   4.249043   4.922412
    16  C    4.922510   3.759048   5.118157   2.448629   4.249638
    17  C    4.922037   5.117455   3.759056   4.249143   2.448648
    18  C    3.759458   4.922982   2.448502   5.118316   2.820465
    19  C    5.117978   4.248871   4.923162   2.820991   3.760473
    20  C    4.248900   5.118127   2.820465   4.923208   2.448724
    21  C    2.820869   4.249624   2.448623   5.118150   3.759037
    22  C    5.117622   4.922413   4.249041   3.759821   2.821166
    23  C    3.759924   2.448732   4.923209   2.820464   5.118132
    24  C    4.249235   2.820479   5.118321   2.448507   4.922992
    25  H    3.428735   4.630916   3.908224   5.886147   5.336103
    26  H    3.907969   3.428098   5.336409   4.629523   6.177087
    27  H    3.428580   3.908406   4.630390   5.336291   5.885520
    28  H    6.177524   5.336106   5.886146   3.908222   4.630921
    29  H    5.885116   6.177081   4.629518   5.336405   3.428092
    30  H    3.908067   5.336827   3.427854   6.177601   4.629217
    31  H    5.336126   6.177637   3.907685   5.886178   3.428173
    32  H    5.885330   4.629223   6.177604   3.427856   5.336839
    33  H    4.630338   3.428179   5.886179   3.907683   6.177641
    34  H    4.629903   5.886004   3.427947   6.177850   3.907691
    35  H    6.177254   5.885523   5.336289   4.630393   3.908408
    36  H    5.336464   3.907703   6.177853   3.427949   5.886011
    37  O    3.710810   3.710783   3.714498   3.712819   3.715091
    38  H    2.896433   3.166868   3.013763   3.514437   3.375780
    39  H    3.606393   3.368980   3.517884   3.008986   3.173389
                    6          7          8          9         10
     6  C    0.000000
     7  C    4.278456   0.000000
     8  C    3.772381   2.850735   0.000000
     9  C    3.772636   2.850046   4.936638   0.000000
    10  C    2.468121   4.936752   2.849635   5.700064   0.000000
    11  C    2.468519   4.936348   5.700068   2.849623   4.936633
    12  C    1.422227   5.700683   4.936362   4.936750   2.850048
    13  C    5.117979   1.424147   4.274649   2.437084   6.198360
    14  C    4.922045   2.437179   1.424050   5.107535   4.273452
    15  C    5.117623   1.424098   2.437439   4.273908   5.107626
    16  C    2.820881   6.198328   4.273395   6.505920   1.423984
    17  C    2.820705   6.197810   6.505485   4.273440   5.107529
    18  C    4.249224   4.273803   6.198206   1.423979   6.506000
    19  C    2.449278   6.506479   5.107485   6.198354   2.437075
    20  C    3.759917   5.107652   6.506040   2.436801   6.198257
    21  C    4.922501   2.437002   5.108115   1.423987   6.505916
    22  C    2.449014   6.506112   6.197825   5.107618   4.273906
    23  C    4.248902   4.274565   1.424062   6.198259   2.436802
    24  C    3.759465   5.108226   2.436823   6.506006   1.423982
    25  H    6.177523   2.166304   4.901498   3.422904   7.097057
    26  H    5.885123   3.422840   2.166189   6.169315   4.900287
    27  H    6.177254   2.166313   3.423106   4.900928   6.169355
    28  H    3.428736   7.575947   6.169260   7.097051   3.422898
    29  H    3.907962   7.096534   7.575013   4.900276   6.169309
    30  H    5.885325   3.422847   6.169963   2.165968   7.575288
    31  H    4.630332   6.169426   7.575483   3.422625   7.096909
    32  H    3.908076   7.096762   4.899793   7.575288   2.165963
    33  H    5.336128   4.901254   2.166257   7.096912   3.422627
    34  H    5.336455   4.900472   7.096891   2.166228   7.575457
    35  H    3.428581   7.575654   7.096648   6.169347   4.900928
    36  H    4.629906   6.170014   3.422624   7.575459   2.166228
    37  O    3.713490   4.454908   4.454521   4.460763   4.457975
    38  H    3.609120   3.488050   3.928814   3.680866   4.479969
    39  H    2.899046   4.624195   4.251523   4.485612   3.673369
                   11         12         13         14         15
    11  C    0.000000
    12  C    2.850734   0.000000
    13  C    5.107482   6.506487   0.000000
    14  C    6.505483   6.197823   3.749321   0.000000
    15  C    6.197817   6.506119   2.497491   1.372448   0.000000
    16  C    5.108120   2.437013   7.371548   5.696984   6.493238
    17  C    1.424050   2.437173   6.493077   7.497180   7.370813
    18  C    2.436811   5.108219   3.748749   6.493139   5.697437
    19  C    4.274648   1.424148   7.498482   6.493079   7.069995
    20  C    1.424058   4.274560   4.873884   7.069569   6.493266
    21  C    4.273385   6.198325   1.372333   4.874177   3.749125
    22  C    2.437439   1.424094   7.069997   7.370820   7.497826
    23  C    6.506034   5.107657   5.698247   2.497240   3.749314
    24  C    6.198205   4.273809   6.493922   3.748801   4.874261
    25  H    6.169254   7.575953   1.087256   4.088253   2.721609
    26  H    7.575010   7.096545   4.631061   1.087272   2.136223
    27  H    7.096637   7.575661   2.721662   2.136389   1.087258
    28  H    4.901498   2.166301   8.530564   7.564991   8.157238
    29  H    2.166191   3.422833   7.245321   8.529331   8.329045
    30  H    4.899790   7.096764   2.136364   5.842405   4.631171
    31  H    2.166258   4.901249   5.841909   8.156806   7.565180
    32  H    6.169967   3.422857   8.329503   6.308818   7.245134
    33  H    7.575476   6.169430   6.310386   2.721329   4.088032
    34  H    3.422613   6.170008   4.087357   7.245354   6.309574
    35  H    3.423106   2.166309   8.157252   8.329127   8.530016
    36  H    7.096886   4.900474   7.565843   4.630720   5.842331
    37  O    4.461692   4.459331   5.078867   5.075280   5.075470
    38  H    4.262016   4.628172   4.063984   4.363315   4.179109
    39  H    3.939593   3.492669   5.379754   5.129140   5.282164
                   16         17         18         19         20
    16  C    0.000000
    17  C    4.874182   0.000000
    18  C    7.070060   3.748788   0.000000
    19  C    1.372334   3.749321   6.493913   0.000000
    20  C    6.493772   2.497229   1.372188   5.698242   0.000000
    21  C    7.497911   5.696974   2.496804   7.371540   3.748511
    22  C    3.749133   1.372446   4.874249   2.497496   3.749305
    23  C    3.748507   7.069563   7.371468   4.873876   7.498133
    24  C    2.496800   6.493137   7.498057   3.748743   7.371470
    25  H    8.329713   7.564985   4.630596   8.530562   5.841907
    26  H    6.309204   8.529330   7.565050   7.245322   8.156838
    27  H    7.565106   8.329119   6.309836   8.157251   7.245660
    28  H    2.136432   4.088253   7.246175   1.087259   6.310496
    29  H    5.842188   1.087273   4.087569   4.631061   2.721194
    30  H    8.529852   6.308815   2.720369   8.329500   4.086797
    31  H    7.245974   2.721323   2.136218   6.310382   1.087240
    32  H    1.087214   5.842411   8.157271   2.136370   7.565726
    33  H    4.630372   8.156799   8.329593   5.841901   8.530182
    34  H    8.157301   4.630707   1.087244   7.565836   2.136152
    35  H    4.088182   2.136387   5.842168   2.721672   4.630992
    36  H    2.720756   7.245348   8.530126   4.087348   8.329622
    37  O    5.081077   5.083445   5.084518   5.081466   5.088093
    38  H    5.320006   5.139423   4.496349   5.380649   4.739897
    39  H    4.140797   4.374882   5.036828   4.064613   4.814686
                   21         22         23         24         25
    21  C    0.000000
    22  C    6.493231   0.000000
    23  C    6.493768   6.493265   0.000000
    24  C    7.070060   5.697439   1.372190   0.000000
    25  H    2.136432   8.157237   6.310502   7.246184   0.000000
    26  H    5.842183   8.329051   2.721204   4.087582   4.787586
    27  H    4.088171   8.530015   4.631004   5.842181   2.492574
    28  H    8.329706   2.721611   5.841902   4.630592   9.574858
    29  H    6.309197   2.136219   8.156833   7.565048   8.291307
    30  H    1.087217   7.245133   7.565724   8.157273   2.464502
    31  H    4.630376   4.088024   8.530183   8.329595   6.759656
    32  H    8.529847   4.631182   4.086787   2.720358   9.251829
    33  H    7.245970   7.565179   1.087240   2.136218   6.780962
    34  H    2.720766   5.842320   8.329624   8.530129   4.786794
    35  H    7.565098   1.087257   7.245661   6.309841   9.244491
    36  H    8.157299   6.309572   2.136156   1.087242   8.292198
    37  O    5.081516   5.082472   5.080655   5.078937   5.883228
    38  H    4.145248   5.289757   4.803208   5.027506   4.856317
    39  H    5.323044   4.188161   4.727757   4.485395   6.286809
                   26         27         28         29         30
    26  H    0.000000
    27  H    2.463962   0.000000
    28  H    8.291312   9.244492   0.000000
    29  H    9.573692   9.251552   4.787585   0.000000
    30  H    6.760177   4.787936   9.251827   6.779292   0.000000
    31  H    9.244074   8.291666   6.780957   2.492009   4.786232
    32  H    6.779294   8.291036   2.464510   6.760183   9.574031
    33  H    2.492018   4.787291   6.759651   9.244069   8.292055
    34  H    8.291327   6.780288   8.292189   4.787112   2.490951
    35  H    9.251560   9.574402   2.492582   2.463955   8.291033
    36  H    4.787127   6.759968   4.786786   8.291321   9.244511
    37  O    5.882605   5.883059   5.886759   5.891709   5.889795
    38  H    5.232698   4.955571   6.288632   5.982442   4.980530
    39  H    5.970839   6.205830   4.858210   5.245503   6.201440
                   31         32         33         34         35
    31  H    0.000000
    32  H    8.292058   0.000000
    33  H    9.574456   4.786222   0.000000
    34  H    2.464089   9.244511   9.251926   0.000000
    35  H    4.787278   4.787952   8.291668   6.759953   0.000000
    36  H    9.251925   2.490935   2.464094   9.574419   6.780289
    37  O    5.895724   5.888617   5.887238   5.892359   5.890374
    38  H    5.643664   6.197207   5.604021   5.275666   6.213348
    39  H    5.616816   4.974804   5.630527   5.958164   4.964527
                   36         37         38         39
    36  H    0.000000
    37  O    5.886754   0.000000
    38  H    5.948605   1.027212   0.000000
    39  H    5.264434   1.028699   1.665431   0.000000
 Stoichiometry    C24H14O
 Framework group  C1[X(C24H14O)]
 Deg. of freedom   111
 Full point group                 C1      NOp   1
 Largest Abelian subgroup         C1      NOp   1
 Largest concise Abelian subgroup C1      NOp   1
                         Standard orientation:                         
 ---------------------------------------------------------------------
 Center     Atomic      Atomic             Coordinates (Angstroms)
 Number     Number       Type             X           Y           Z
 ---------------------------------------------------------------------
      1          6           0       -1.356213   -0.446707   -0.197341
      2          6           0       -0.290301   -1.398126   -0.198250
      3          6           0       -1.065570    0.951856   -0.198442
      4          6           0        1.065797   -0.951064   -0.198698
      5          6           0        0.290522    1.398921   -0.197548
      6          6           0        1.356437    0.447502   -0.196951
      7          6           0       -2.706936   -0.891971   -0.197694
      8          6           0       -0.579920   -2.789994   -0.199512
      9          6           0       -2.126102    1.898260   -0.200209
     10          6           0        2.126334   -1.897465   -0.200719
     11          6           0        0.580142    2.790779   -0.198134
     12          6           0        2.707166    0.892767   -0.196869
     13          6           0       -3.748295    0.079505   -0.198983
     14          6           0       -1.941866   -3.205952   -0.199132
     15          6           0       -2.966007   -2.292306   -0.198067
     16          6           0        3.468670   -1.422212   -0.200752
     17          6           0        1.942087    3.206739   -0.197340
     18          6           0       -1.805866    3.285763   -0.200647
     19          6           0        3.748518   -0.078716   -0.198443
     20          6           0       -0.502740    3.715587   -0.204321
     21          6           0       -3.468437    1.422999   -0.200647
     22          6           0        2.966231    2.293100   -0.196536
     23          6           0        0.502973   -3.714792   -0.205956
     24          6           0        1.806101   -3.284972   -0.201871
     25          1           0       -4.780043   -0.263413   -0.193647
     26          1           0       -2.160780   -4.270957   -0.198930
     27          1           0       -3.999310   -2.630556   -0.197427
     28          1           0        4.780268    0.264202   -0.192800
     29          1           0        2.161002    4.271745   -0.196589
     30          1           0       -4.277474    2.149292   -0.200876
     31          1           0       -0.278721    4.779498   -0.203564
     32          1           0        4.277700   -2.148507   -0.201201
     33          1           0        0.278954   -4.778703   -0.205734
     34          1           0       -2.618821    4.007708   -0.200652
     35          1           0        3.999532    2.631354   -0.195583
     36          1           0        2.619058   -4.006911   -0.202090
     37          8           0       -0.002026   -0.005738    3.229295
     38          1           0       -0.831001   -0.072062    2.626330
     39          1           0        0.829483    0.056211    2.626819
 ---------------------------------------------------------------------
 Rotational constants (GHZ):      0.2957164      0.2954725      0.1665604
 Standard basis: 6-31G(d) (6D, 7F)
 There are   403 symmetry adapted basis functions of A   symmetry.
 Integral buffers will be    131072 words long.
 Raffenetti 2 integral format.
 Two-electron integral symmetry is turned on.
   403 basis functions,   756 primitive gaussians,   403 cartesian basis functions
    83 alpha electrons       83 beta electrons
       nuclear repulsion energy      2021.8659433420 Hartrees.
 NAtoms=   39 NActive=   39 NUniq=   39 SFac= 1.00D+00 NAtFMM=   50 NAOKFM=F Big=F
 One-electron integrals computed using PRISM.
 NBasis=   403 RedAO= T  NBF=   403
 NBsUse=   403 1.00D-06 NBFU=   403
 Harris functional with IExCor=  402 diagonalized for initial guess.
 ExpMin= 1.61D-01 ExpMax= 5.48D+03 ExpMxC= 8.25D+02 IAcc=1 IRadAn=         1 AccDes= 0.00D+00
 HarFok:  IExCor=  402 AccDes= 0.00D+00 IRadAn=         1 IDoV= 1
 ScaDFX=  1.000000  1.000000  1.000000  1.000000
 FoFCou: FMM=F IPFlag=           0 FMFlag=      100000 FMFlg1=           0
         NFxFlg=           0 DoJE=T BraDBF=F KetDBF=T FulRan=T
         Omega=  0.000000  0.000000  1.000000  0.000000  0.000000 ICntrl=     500 IOpCl=  0
         NMat0=    1 NMatS0=    1 NMatT0=    0 NMatD0=    1 NMtDS0=    0 NMtDT0=    0
         I1Cent=           4 NGrid=           0.
 Petite list used in FoFCou.
 Initial guess orbital symmetries:
       Occupied  (A) (A) (A) (A) (A) (A) (A) (A) (A) (A) (A) (A)
                 (A) (A) (A) (A) (A) (A) (A) (A) (A) (A) (A) (A)
                 (A) (A) (A) (A) (A) (A) (A) (A) (A) (A) (A) (A)
                 (A) (A) (A) (A) (A) (A) (A) (A) (A) (A) (A) (A)
                 (A) (A) (A) (A) (A) (A) (A) (A) (A) (A) (A) (A)
                 (A) (A) (A) (A) (A) (A) (A) (A) (A) (A) (A) (A)
                 (A) (A) (A) (A) (A) (A) (A) (A) (A) (A) (A)
       Virtual   (A) (A) (A) (A) (A) (A) (A) (A) (A) (A) (A) (A)
                 (A) (A) (A) (A) (A) (A) (A) (A) (A) (A) (A) (A)
                 (A) (A) (A) (A) (A) (A) (A) (A) (A) (A) (A) (A)
                 (A) (A) (A) (A) (A) (A) (A) (A) (A) (A) (A) (A)
                 (A) (A) (A) (A) (A) (A) (A) (A) (A) (A) (A) (A)
                 (A) (A) (A) (A) (A) (A) (A) (A) (A) (A) (A) (A)
                 (A) (A) (A) (A) (A) (A) (A) (A) (A) (A) (A) (A)
                 (A) (A) (A) (A) (A) (A) (A) (A) (A) (A) (A) (A)
                 (A) (A) (A) (A) (A) (A) (A) (A) (A) (A) (A) (A)
                 (A) (A) (A) (A) (A) (A) (A) (A) (A) (A) (A) (A)
                 (A) (A) (A) (A) (A) (A) (A) (A) (A) (A) (A) (A)
                 (A) (A) (A) (A) (A) (A) (A) (A) (A) (A) (A) (A)
                 (A) (A) (A) (A) (A) (A) (A) (A) (A) (A) (A) (A)
                 (A) (A) (A) (A) (A) (A) (A) (A) (A) (A) (A) (A)
                 (A) (A) (A) (A) (A) (A) (A) (A) (A) (A) (A) (A)
                 (A) (A) (A) (A) (A) (A) (A) (A) (A) (A) (A) (A)
                 (A) (A) (A) (A) (A) (A) (A) (A) (A) (A) (A) (A)
                 (A) (A) (A) (A) (A) (A) (A) (A) (A) (A) (A) (A)
                 (A) (A) (A) (A) (A) (A) (A) (A) (A) (A) (A) (A)
                 (A) (A) (A) (A) (A) (A) (A) (A) (A) (A) (A) (A)
                 (A) (A) (A) (A) (A) (A) (A) (A) (A) (A) (A) (A)
                 (A) (A) (A) (A) (A) (A) (A) (A) (A) (A) (A) (A)
                 (A) (A) (A) (A) (A) (A) (A) (A) (A) (A) (A) (A)
                 (A) (A) (A) (A) (A) (A) (A) (A) (A) (A) (A) (A)
                 (A) (A) (A) (A) (A) (A) (A) (A) (A) (A) (A) (A)
                 (A) (A) (A) (A) (A) (A) (A) (A) (A) (A) (A) (A)
                 (A) (A) (A) (A) (A) (A) (A) (A)
 The electronic state of the initial guess is 1-A.
 Requested convergence on RMS density matrix=1.00D-08 within  64 cycles.
 Requested convergence on MAX density matrix=1.00D-06.
 Requested convergence on             energy=1.00D-06.
 No special actions if energy rises.
 Integral accuracy reduced to 1.0D-05 until final iterations.
 Initial convergence to 1.0D-05 achieved.  Increase integral accuracy.
 SCF Done:  E(RB3LYP) =  -998.303083409     A.U. after   14 cycles
             Convg  =    0.4836D-08             -V/T =  2.0097
 QCSCF skips out because SCF is already converged.

 **********************************************************************

            Population analysis using the SCF density.

 **********************************************************************

 Orbital symmetries:
       Occupied  (A) (A) (A) (A) (A) (A) (A) (A) (A) (A) (A) (A)
                 (A) (A) (A) (A) (A) (A) (A) (A) (A) (A) (A) (A)
                 (A) (A) (A) (A) (A) (A) (A) (A) (A) (A) (A) (A)
                 (A) (A) (A) (A) (A) (A) (A) (A) (A) (A) (A) (A)
                 (A) (A) (A) (A) (A) (A) (A) (A) (A) (A) (A) (A)
                 (A) (A) (A) (A) (A) (A) (A) (A) (A) (A) (A) (A)
                 (A) (A) (A) (A) (A) (A) (A) (A) (A) (A) (A)
       Virtual   (A) (A) (A) (A) (A) (A) (A) (A) (A) (A) (A) (A)
                 (A) (A) (A) (A) (A) (A) (A) (A) (A) (A) (A) (A)
                 (A) (A) (A) (A) (A) (A) (A) (A) (A) (A) (A) (A)
                 (A) (A) (A) (A) (A) (A) (A) (A) (A) (A) (A) (A)
                 (A) (A) (A) (A) (A) (A) (A) (A) (A) (A) (A) (A)
                 (A) (A) (A) (A) (A) (A) (A) (A) (A) (A) (A) (A)
                 (A) (A) (A) (A) (A) (A) (A) (A) (A) (A) (A) (A)
                 (A) (A) (A) (A) (A) (A) (A) (A) (A) (A) (A) (A)
                 (A) (A) (A) (A) (A) (A) (A) (A) (A) (A) (A) (A)
                 (A) (A) (A) (A) (A) (A) (A) (A) (A) (A) (A) (A)
                 (A) (A) (A) (A) (A) (A) (A) (A) (A) (A) (A) (A)
                 (A) (A) (A) (A) (A) (A) (A) (A) (A) (A) (A) (A)
                 (A) (A) (A) (A) (A) (A) (A) (A) (A) (A) (A) (A)
                 (A) (A) (A) (A) (A) (A) (A) (A) (A) (A) (A) (A)
                 (A) (A) (A) (A) (A) (A) (A) (A) (A) (A) (A) (A)
                 (A) (A) (A) (A) (A) (A) (A) (A) (A) (A) (A) (A)
                 (A) (A) (A) (A) (A) (A) (A) (A) (A) (A) (A) (A)
                 (A) (A) (A) (A) (A) (A) (A) (A) (A) (A) (A) (A)
                 (A) (A) (A) (A) (A) (A) (A) (A) (A) (A) (A) (A)
                 (A) (A) (A) (A) (A) (A) (A) (A) (A) (A) (A) (A)
                 (A) (A) (A) (A) (A) (A) (A) (A) (A) (A) (A) (A)
                 (A) (A) (A) (A) (A) (A) (A) (A) (A) (A) (A) (A)
                 (A) (A) (A) (A) (A) (A) (A) (A) (A) (A) (A) (A)
                 (A) (A) (A) (A) (A) (A) (A) (A) (A) (A) (A) (A)
                 (A) (A) (A) (A) (A) (A) (A) (A) (A) (A) (A) (A)
                 (A) (A) (A) (A) (A) (A) (A) (A) (A) (A) (A) (A)
                 (A) (A) (A) (A) (A) (A) (A) (A)
 The electronic state is 1-A.
 Alpha  occ. eigenvalues --  -19.12310 -10.20684 -10.20675 -10.20642 -10.20626
 Alpha  occ. eigenvalues --  -10.20603 -10.20599 -10.20592 -10.20583 -10.20543
 Alpha  occ. eigenvalues --  -10.20541 -10.20518 -10.20515 -10.19899 -10.19898
 Alpha  occ. eigenvalues --  -10.19871 -10.19869 -10.19834 -10.19833 -10.19832
 Alpha  occ. eigenvalues --  -10.19831 -10.19806 -10.19804 -10.19768 -10.19766
 Alpha  occ. eigenvalues --   -0.94880  -0.90904  -0.87255  -0.87200  -0.82537
 Alpha  occ. eigenvalues --   -0.82533  -0.80941  -0.77782  -0.76404  -0.74764
 Alpha  occ. eigenvalues --   -0.74712  -0.71505  -0.71504  -0.63838  -0.63826
 Alpha  occ. eigenvalues --   -0.63516  -0.63510  -0.62718  -0.56713  -0.55923
 Alpha  occ. eigenvalues --   -0.54288  -0.54267  -0.53799  -0.51660  -0.48134
 Alpha  occ. eigenvalues --   -0.47817  -0.47786  -0.46127  -0.46106  -0.46004
 Alpha  occ. eigenvalues --   -0.45984  -0.43104  -0.43083  -0.42439  -0.42429
 Alpha  occ. eigenvalues --   -0.42087  -0.40499  -0.40470  -0.38721  -0.38644
 Alpha  occ. eigenvalues --   -0.37865  -0.37846  -0.36369  -0.36360  -0.36277
 Alpha  occ. eigenvalues --   -0.34008  -0.33257  -0.33246  -0.32047  -0.32031
 Alpha  occ. eigenvalues --   -0.31536  -0.27190  -0.27032  -0.26572  -0.25563
 Alpha  occ. eigenvalues --   -0.25334  -0.20675  -0.20663
 Alpha virt. eigenvalues --   -0.05844  -0.05829  -0.01926  -0.01836   0.00238
 Alpha virt. eigenvalues --    0.01672   0.06217   0.07068   0.08929   0.09024
 Alpha virt. eigenvalues --    0.09054   0.10290   0.10328   0.12099   0.12118
 Alpha virt. eigenvalues --    0.14257   0.14431   0.14934   0.16080   0.16102
 Alpha virt. eigenvalues --    0.17729   0.17792   0.18122   0.18158   0.20499
 Alpha virt. eigenvalues --    0.20571   0.24717   0.25054   0.25101   0.26545
 Alpha virt. eigenvalues --    0.26572   0.26699   0.27974   0.27982   0.28366
 Alpha virt. eigenvalues --    0.28407   0.29812   0.33050   0.33063   0.34129
 Alpha virt. eigenvalues --    0.35530   0.35540   0.41180   0.42928   0.44741
 Alpha virt. eigenvalues --    0.45173   0.46151   0.46158   0.49283   0.49337
 Alpha virt. eigenvalues --    0.49906   0.51242   0.51513   0.51738   0.51787
 Alpha virt. eigenvalues --    0.53352   0.54067   0.54088   0.54836   0.55296
 Alpha virt. eigenvalues --    0.55305   0.55366   0.56347   0.56363   0.57010
 Alpha virt. eigenvalues --    0.57917   0.57976   0.57980   0.58271   0.58678
 Alpha virt. eigenvalues --    0.58988   0.59057   0.59209   0.59246   0.59466
 Alpha virt. eigenvalues --    0.59838   0.61434   0.61472   0.61511   0.62162
 Alpha virt. eigenvalues --    0.63142   0.63165   0.63340   0.63396   0.63514
[...]
 0.00005432,-0.00000019,-0.00000575,-0.00000950,0.00000020,-0.00007014,
 0.00000744,0.00000021,0.35377830,0.00013796,-0.00006606,0.00000274,-0.
 00008769,-0.00038641,-0.00000444,-0.00003953,0.00020612,-0.00000521,-0
 .00126364,0.00074217,0.00000681,-0.00005948,-0.00088035,-0.00000164,-0
 .00190170,-0.00443094,0.00001665,-0.00001904,0.00008416,-0.00000069,-0
 .00009093,0.00001046,-0.00000002,-0.00023962,-0.00012604,0.00000033,-0
 .00013771,0.00018302,-0.00000098,0.00047820,-0.00531067,0.00002324,-0.
 02554995,0.00668780,-0.00000564,-0.00000570,-0.00011983,0.00000027,-0.
 00003239,-0.00002580,-0.00000022,-0.00001625,-0.00001510,-0.00000008,0
 .00037921,0.00004917,-0.00000260,0.03136752,0.00055650,0.00000345,0.00
 024363,-0.00044737,-0.00000124,-0.00143386,0.00164590,-0.00000121,0.00
 128516,0.00072427,-0.00000006,0.00008570,0.00009034,-0.00000012,0.0339
 4965,-0.06443718,0.00008461,-0.00007445,0.00003729,-0.00000034,0.00018
 065,0.00001949,0.00000056,0.00000516,0.00000946,-0.00000013,-0.0000164
 1,0.00000600,-0.00000002,0.00000250,0.00000156,0.00000007,0.00086025,-
 0.00031194,0.00000075,-0.00027990,0.00099761,-0.00000673,-0.00000106,-
 0.00000096,0.00000006,-0.00002035,-0.00003882,0.00000091,0.00000122,-0
 .00000550,0.00000037,0.00000231,0.00000124,0.,0.00016394,-0.00002288,-
 0.00000038,-0.03785464,0.06460146,0.00000050,0.00000011,0.00031601,0.0
 0000154,0.00000588,-0.00027840,0.00000222,-0.00000518,-0.00126076,0.00
 000838,-0.00000262,0.00063413,-0.00000219,0.00000533,0.00025374,-0.000
 01599,0.00002839,0.00401699,0.00000016,0.00000224,-0.00002432,0.000001
 26,-0.00000172,0.00005350,-0.00000203,-0.00000078,0.00029658,-0.000002
 99,-0.00000361,-0.00000890,0.00000947,0.00001488,0.00855881,0.00007257
 ,0.00000835,0.00278725,-0.00000080,-0.00000237,0.00004366,-0.00000101,
 0.00000039,-0.00008507,0.00000063,-0.00000079,0.00001597,0.00000338,0.
 00000063,-0.00012785,-0.00005258,0.00000302,0.00273667,0.00000092,0.00
 000085,-0.00073726,0.00000362,-0.00001251,-0.00284987,-0.00000445,-0.0
 0000110,0.00044399,0.00000289,0.00000034,0.00001966,-0.00020489,0.0000
 6179,-0.03528569,-0.00000235,0.00000170,-0.00001712,0.00000317,0.00000
 089,0.00000793,-0.00000006,-0.00000007,-0.00001943,0.00000010,-0.00000
 007,0.00000431,-0.00000003,-0.00000007,0.00001010,-0.00000501,0.000000
 63,0.00025685,0.00000497,-0.00000379,-0.00476704,-0.00000009,0.0000001
 0,0.00000182,0.00000055,-0.00000008,0.00013737,-0.00000013,0.00000013,
 0.00013655,0.00000005,-0.00000003,0.00000193,-0.00000029,0.00000014,-0
 .00001685,0.00017650,-0.00009682,0.02470808,0.00019455,0.00001286,0.00
 000784,-0.00068361,-0.00038048,0.00000104,-0.00008703,0.00010442,-0.00
 000337,-0.00272239,-0.00268542,-0.00001742,-0.00025358,-0.00013375,0.0
 0000215,0.00073696,-0.00086076,-0.00000332,-0.00005829,-0.00025808,-0.
 00000038,-0.00545648,-0.00147101,-0.00002375,0.00008498,0.00001411,0.0
 0000009,0.01069784,-0.01832800,0.00000643,0.00000343,-0.00005894,0.000
 00052,0.00020332,-0.00014141,-0.00000053,0.00005967,0.00010025,0.00000
 027,0.00038934,0.00154513,0.00000262,-0.00055011,0.00009209,0.00000076
 ,0.00142756,-0.00126731,0.00000569,0.00006725,-0.00006134,0.,-0.000018
 23,-0.00002543,-0.00000011,0.00005205,0.00038129,0.00000286,-0.0000004
 3,-0.00003514,0.00000015,-0.00010408,-0.00003637,-0.00000035,-0.000020
 23,0.00016939,-0.00000029,-0.00798587,0.03147076,-0.00001070,-0.101029
 61,0.09803989,-0.00012580,-0.00000359,-0.00000105,-0.00000004,-0.00003
 856,-0.00003475,-0.00000084,-0.00007013,0.00016394,0.00000034,0.000006
 49,0.00000818,-0.00000014,0.00000258,0.00000460,0.00000005,0.00000628,
 0.00001057,0.00000012,0.00001049,-0.00000861,0.00000004,-0.00022943,0.
 00059469,-0.00000205,0.00099378,-0.00025851,0.00000756,-0.00000072,0.0
 0000579,-0.00000004,-0.00000669,-0.00002162,0.00000004,0.10438543,0.00
 007447,0.00001808,-0.00000562,-0.00064802,0.00027473,0.00000504,-0.000
 05747,0.00006202,0.00000074,-0.00427796,-0.00161363,-0.00002160,-0.000
 39811,-0.00021857,-0.00000208,0.00127343,-0.00072012,0.00000059,-0.000
 00042,-0.00006123,0.00000075,0.00006365,0.00178731,0.00000162,0.000020
 41,-0.00003831,-0.00000042,0.01145406,-0.01967300,0.00001964,0.0001186
 5,-0.00010431,0.00000100,0.00006321,0.00019748,-0.00000281,0.00002495,
 0.00004370,0.00000002,-0.00008169,-0.00021754,0.,0.00013057,0.00009818
 ,0.00000052,0.00216613,0.00094512,-0.00000243,-0.00003690,-0.00000797,
 0.00000043,0.00002718,0.00001720,0.00000008,-0.00040489,0.00002175,0.0
 0000237,-0.00005980,-0.00001645,0.00000080,-0.00005498,-0.00001227,0.0
 0000026,-0.00003760,0.00005718,0.00000108,-0.00031577,0.00010511,0.000
 01108,0.09864309,-0.29599153,0.00012805,0.00001072,-0.00000096,-0.0000
 0003,0.00002072,0.00001425,0.00000013,0.00000744,-0.00002287,-0.000000
 14,-0.00004816,-0.00003211,0.00000008,-0.00000724,-0.00000708,-0.00000
 030,0.00000622,-0.00001026,0.00000003,0.00000011,-0.00002228,-0.000000
 02,-0.00125406,0.00043810,-0.00000195,0.00025179,0.00095810,-0.0000009
 5,0.00000579,-0.00001038,-0.00000003,-0.00003372,-0.00002194,0.,-0.106
 64509,0.31375067,0.00000529,-0.00000288,-0.00127711,-0.00000886,0.0000
 0409,0.00028956,0.00000069,-0.00000071,0.00032032,-0.00002019,-0.00000
 095,0.00399525,-0.00000328,-0.00000413,-0.00028149,0.00000110,-0.00000
 594,0.00064276,-0.00000056,0.00000074,0.00029882,-0.00001488,-0.000013
 32,0.00854685,-0.00000158,-0.00000013,-0.00002366,0.00001155,-0.000070
 25,0.00284709,0.00000293,0.00000050,0.00005291,0.00000177,0.00000438,-
 0.00001213,0.00000053,-0.00000232,0.00001947,-0.00000010,0.00000306,0.
 00044438,0.,0.00000032,-0.00073930,0.00001607,-0.00000044,-0.00284252,
 -0.00000308,0.00000228,-0.00001772,0.00000073,-0.00000014,0.00001555,-
 0.00000028,-0.00000449,-0.00012308,-0.00000041,0.00000038,-0.00008500,
 0.00000151,0.00000087,0.00004424,-0.00000006,-0.00000432,0.00000857,-0
 .00001110,0.00004759,0.00272947,-0.00013356,0.00020621,-0.03532434,-0.
 00000015,0.00000004,0.00000192,0.00000020,-0.00000078,0.00013701,-0.00
 000022,0.00000044,-0.00001687,-0.00000036,-0.00000034,0.00013695,0.,0.
 ,0.00000202,0.00000002,0.00000008,-0.00001961,0.00000009,-0.00000006,0
 .00000454,-0.00000084,0.00000248,0.00027791,0.00000576,-0.00000379,-0.
 00476579,0.00000004,0.00000003,0.00001015,0.00000001,-0.00000005,0.000
 02025,0.00015169,-0.00016353,0.02466931,0.00003444,-0.00022452,-0.0002
 5270,-0.00012740,0.00021120,0.00009650,-0.00037648,-0.00024531,0.00011
 044,-0.00037681,-0.00024603,-0.00010622,-0.00012334,0.00021242,-0.0000
 9838,0.00003650,-0.00022184,0.00024627,0.00025587,-0.00007525,0.000016
 07,0.00005999,0.00019216,0.00002495,-0.00009095,0.00000539,0.00002008,
 -0.00008929,0.00000239,-0.00002047,0.00006034,0.00019186,-0.00002437,0
 .00025775,-0.00007522,-0.00001558,0.00011834,-0.00003222,-0.00006551,0
 .00004759,0.00004402,-0.00005673,0.00008097,-0.00001706,-0.00006617,-0
 .00006159,0.00002975,0.00001405,0.00004717,0.00004384,0.00005649,-0.00
 001993,-0.00006321,-0.00000983,0.00011844,-0.00003157,0.00006522,0.000
 03608,0.00011317,0.00004549,-0.00006046,0.00002999,-0.00001419,0.00008
 072,-0.00001682,0.00006595,0.00003623,0.00011344,-0.00004576,-0.000020
 22,-0.00006284,0.00000999,0.00002416,0.00000499,0.00003177,0.00001213,
 0.00001761,0.00003075,0.00002371,-0.00000349,0.00003363,0.00002395,0.0
 0000512,-0.00003168,0.00001191,0.00001733,-0.00003051,0.00001117,-0.00
 000715,0.00001177,0.00001457,0.00000972,-0.00002367,0.00001106,-0.0000
 0701,-0.00001176,0.00001473,0.00001001,0.00002389,0.00000680,-0.000003
 56,0.00000363,0.00002340,-0.00000348,-0.00003347,0.00000677,-0.0000033
 5,-0.00000362,0.56312613,-0.00012954,-0.00078956,0.00002133,0.00031908
 ,-0.00013647,-0.00003904,-0.00044108,-0.00010060,0.00005483,-0.0004451
 2,-0.00010665,-0.00006149,0.00032049,-0.00012754,0.00003474,-0.0001292
 1,-0.00078788,-0.00002005,0.00003311,-0.00012187,-0.00002580,0.0003310
 4,0.00029029,0.00003521,-0.00024378,0.00034281,-0.00000706,-0.00024436
 ,0.00033942,0.00000725,0.00032929,0.00029026,-0.00003489,0.00003980,-0
 .00012229,0.00002738,0.00009261,-0.00009432,-0.00000679,0.00017437,0.0
 0012245,-0.00007697,-0.00007746,-0.00005222,0.00000264,-0.00014298,0.0
 0016281,-0.00008118,0.00017292,0.00012191,0.00007627,-0.00004559,0.000
 11145,0.00009087,0.00009343,-0.00009426,0.00000676,0.00007066,0.000118
 20,0.00009465,-0.00014186,0.00016331,0.00008047,-0.00007709,-0.0000510
 7,-0.00000239,0.00007131,0.00011940,-0.00009526,-0.00004654,0.00011186
 ,-0.00009115,-0.00000194,0.00001514,-0.00000454,0.00000559,0.00002845,
 0.00004154,0.00000209,0.00001131,0.00000458,-0.00000232,0.00001538,0.0
 0000455,0.00000517,0.00002789,-0.00004110,0.00000421,0.00003015,-0.000
 04084,0.00002041,0.00002147,-0.00004729,0.00000392,0.00003058,0.000041
 02,0.00002088,0.00002209,0.00004778,-0.00001171,0.00002627,-0.00004541
 ,0.00000162,0.00001121,-0.00000456,-0.00001191,0.00002686,0.00004568,-
 0.21215359,0.08116324,0.00039384,-0.00002469,-0.00030655,0.00015806,0.
 00027025,-0.00009689,0.00007054,-0.00035544,-0.00013910,-0.00007694,0.
 00035262,-0.00014993,-0.00015728,-0.00026838,-0.00008604,-0.00039510,0
 .00001749,-0.00029777,0.00046388,-0.00008377,-0.00006256,0.00026105,0.
 00030233,-0.00007167,0.00020750,-0.00036494,-0.00007966,-0.00020910,0.
 00036853,-0.00007967,-0.00025837,-0.00029951,-0.00007115,-0.00045891,0
 .00008463,-0.00006263,-0.00005651,0.00010700,0.00007486,-0.00002552,-0
 .00000102,0.00002877,-0.00006389,-0.00010514,0.00006943,0.00005797,-0.
 00003065,0.00005116,0.00002457,0.00000058,0.00002783,0.00005983,0.0000
 3382,0.00004317,0.00005702,-0.00010628,0.00007474,-0.00002923,0.000015
 07,0.00002483,-0.00005701,0.00003066,0.00005051,0.00006325,0.00010373,
 0.00006853,0.00002946,-0.00001541,0.00002556,-0.00006092,-0.00003481,0
 .00004410,-0.00006809,0.00001638,-0.00002711,-0.00004396,-0.00004240,-
 0.00001630,-0.00006941,0.00000132,-0.00002721,0.00006799,-0.00001621,-
 0.00002702,0.00004371,0.00004226,-0.00001606,-0.00003272,0.00005623,-0
 .00002062,0.00002886,0.00005289,-0.00001623,0.00003294,-0.00005638,-0.
 00002079,-0.00002892,-0.00005318,-0.00001648,-0.00001655,0.00006190,-0
 .00002088,0.00006923,-0.00000128,-0.00002700,0.00001667,-0.00006213,-0
 .00002118,0.00071246,0.00160879,0.45727137,0.00047393,0.00015459,0.000
 16343,0.00023605,-0.00022972,-0.00020791,0.00045440,0.00021133,-0.0002
 6774,0.00002255,0.00018244,-0.00004338,-0.00024051,-0.00012983,-0.0000
 5468,-0.00029496,0.00020381,-0.00003627,-0.00016108,0.00002866,-0.0000
 5854,0.00021647,0.00006842,-0.00009877,0.00029891,-0.00032224,-0.00011
 312,-0.00008416,0.00019401,-0.00003832,-0.00024474,-0.00029098,-0.0000
 1178,-0.00021763,0.00004677,-0.00001961,-0.00019809,0.00022263,0.00011
 329,-0.00006039,-0.00002183,0.00003285,-0.00020377,-0.00017727,0.00009
 756,0.00003792,-0.00004437,0.00000752,-0.00001614,0.00000156,-0.000017
 14,0.00006918,0.00007494,0.00002958,-0.00003590,-0.00001415,0.00000875
 ,-0.00007959,-0.00002319,-0.00000236,0.00001341,0.00000882,0.00000599,
 0.00000043,0.00002818,0.00000740,0.00000655,-0.00011178,0.00003977,-0.
 00003908,0.00002228,0.00001365,-0.00003836,-0.00000234,-0.00003651,-0.
 00002472,-0.00001271,-0.00001557,-0.00003627,0.00000527,-0.00003671,0.
 00001759,-0.00001216,-0.00000048,0.00001567,0.00000772,0.00000630,-0.0
 0002749,0.00001469,-0.00000615,-0.00000300,0.00001939,0.00000358,0.000
 00808,-0.00001628,-0.00000236,-0.00001262,-0.00002074,-0.00001431,-0.0
 0000384,0.00002303,-0.00000729,0.00001992,0.00000113,-0.00000097,-0.00
 000581,-0.00002026,-0.00000426,-0.28196635,0.10552734,-0.17585318,0.31
 044506,0.00012790,0.00087733,0.00001180,-0.00005393,-0.00000291,0.0001
 8006,0.00021090,0.00030747,-0.00004029,0.00055477,-0.00010876,-0.00002
 758,-0.00051848,0.00010966,0.00010292,0.00009646,0.00028196,-0.0000026
 1,-0.00019096,0.00017984,0.00005619,-0.00037366,-0.00046450,-0.0000279
 4,0.00020664,-0.00044800,0.00002290,0.00012747,-0.00011625,-0.00001357
 ,-0.00012368,0.00001938,0.00006746,0.00005911,0.00000551,0.00001798,-0
 .00001358,0.00012542,0.00000857,-0.00006087,-0.00017337,0.00002326,0.0
 0003400,0.00012979,-0.00003021,0.00006063,-0.00007230,0.00001733,-0.00
 011527,-0.00005228,-0.00003556,-0.00005726,-0.00015365,-0.00008146,-0.
 00008023,0.00002565,-0.00000679,-0.00001194,-0.00006556,-0.00003176,0.
 00013270,-0.00021408,-0.00005865,0.00006123,-0.00001124,-0.00001013,0.
 00000088,-0.00010896,0.00005309,0.00001137,-0.00002412,0.00002052,0.00
 000862,-0.00001807,-0.00000030,0.00001237,-0.00001575,-0.00002037,0.00
 000615,-0.00000547,0.00000197,-0.00000909,-0.00000775,0.00000246,-0.00
 000152,-0.00001224,0.00001443,-0.00000861,-0.00002885,0.00003005,-0.00
 000255,-0.00001257,0.00001652,-0.00001280,0.00000075,-0.00000755,-0.00
 000769,0.00000398,-0.00002285,0.00001135,-0.00001727,0.00003253,-0.000
 00674,-0.00001229,0.00000224,-0.00000445,0.00000469,-0.00000787,0.1052
 6908,-0.03998164,0.06547874,-0.11625724,0.04394370,-0.00040840,-0.0001
 5874,-0.00000398,0.00026704,-0.00076336,-0.00012617,0.00030559,0.00074
 031,-0.00016117,0.00015050,-0.00004210,-0.00008288,0.00051165,0.000009
 49,-0.00016575,0.00010824,-0.00003333,-0.00014634,-0.00072929,0.000120
 27,0.00005420,-0.00010639,-0.00015116,0.00001571,-0.00018426,0.0003716
 5,0.00003228,0.00001548,-0.00007705,0.00003407,0.00005402,0.00006853,0
 .00002638,0.00006169,-0.00000179,0.00003045,-0.00000722,-0.00007269,-0
 .00010358,0.00006176,0.00006057,-0.00006606,-0.00002023,0.00001575,-0.
 00007526,-0.00001747,0.00002163,-0.00001333,-0.00001151,-0.00000059,-0
 .00001575,0.00000321,0.00001093,-0.00004449,-0.00004786,0.00002556,-0.
 00001730,-0.00004971,-0.00004646,-0.00002566,0.00010267,-0.00003402,-0
 .00010751,-0.00006023,-0.00002519,-0.00001943,-0.00000508,-0.00000143,
 -0.00002661,-0.00000438,0.00006053,-0.00002000,0.00007124,-0.00002868,
 0.00004177,0.00002897,0.00004276,0.00002930,0.00007420,0.00001461,0.00
 003527,-0.00002812,0.00000613,0.00000696,-0.00002921,-0.00002016,0.000
 00746,0.00002900,-0.00005682,0.00003963,-0.00002667,-0.00002832,0.0000
 1653,-0.00001827,0.00002519,0.00000583,0.00001376,0.00004495,0.0000144
 6,0.00000279,-0.00006006,0.00002273,-0.00002871,0.00000367,0.00000847,
 -0.00001496,0.00002922,0.00001144,-0.23869492,0.08921792,-0.22828886,0
 .20753027,-0.07756626,0.21613451,-0.00029211,0.00021320,0.00003946,-0.
 00023596,-0.00012684,0.00006460,0.00002654,0.00018473,0.00003956,0.000
 46377,0.00021303,0.00026671,0.00023594,-0.00023171,0.00019897,0.000471
 27,0.00015884,-0.00016113,-0.00021750,0.00004751,0.00001948,-0.0002479
 5,-0.00029689,0.00001171,-0.00008277,0.00018992,0.00003794,0.00029836,
 -0.00032139,0.00011370,0.00021250,0.00006539,0.00009716,-0.00016655,0.
 00002853,0.00005854,-0.00003652,-0.00001379,-0.00000858,-0.00001739,0.
 00000141,0.00001751,0.00000042,0.00002796,-0.00000756,0.00001536,0.000
 01062,-0.00000544,-0.00006040,-0.00002141,-0.00003250,-0.00003825,0.00
 002296,-0.00001351,-0.00019924,0.00021884,-0.00011265,0.00000542,-0.00
 011107,-0.00003922,0.00003839,-0.00004473,-0.00000756,-0.00020244,-0.0
 0017624,-0.00009604,-0.00008144,-0.00002295,0.00000244,0.00007146,0.00
 007560,-0.00003027,0.00001749,-0.00001224,0.00000044,0.00001569,0.0000
 0759,-0.00000646,0.00001985,0.00000104,0.00000099,-0.00003814,-0.00000
 263,0.00003625,-0.00002441,-0.00001254,0.00001545,0.00000784,-0.000016
 22,0.00000239,-0.00001260,-0.00002041,0.00001416,-0.00002746,0.0000146
 9,0.00000610,-0.00000321,0.00001938,-0.00000370,-0.00000583,-0.0000200
 9,0.00000419,-0.00003591,0.00000520,0.00003644,-0.00000391,0.00002291,
 0.00000742,-0.28126810,0.10670673,0.17514276,-0.02834162,0.01091895,0.
 03110077,0.30973940,0.00009740,0.00028096,0.00000368,-0.00051534,0.000
 11423,-0.00010571,0.00054807,-0.00010990,0.00002951,0.00021880,0.00032
 060,0.00004262,-0.00004824,-0.00001578,-0.00017370,0.00012649,0.000871
 34,-0.00001426,0.00006201,0.00000569,-0.00001857,-0.00012337,0.0000217
 3,-0.00006785,0.00012614,-0.00011775,0.00001303,0.00020673,-0.00044361
 ,-0.00002077,-0.00036825,-0.00046000,0.00002748,-0.00020243,0.00018206
 ,-0.00006030,-0.00008031,0.00002550,0.00000685,-0.00011644,-0.00005195
 ,0.00003618,0.00006067,-0.00001148,0.00001029,0.00013771,-0.00021246,0
 .00006084,-0.00005932,-0.00017190,-0.00002225,0.00001138,-0.00002327,-
 0.00002037,-0.00001608,0.00012473,-0.00000793,0.00000078,-0.00010723,-
 0.00005272,0.00006003,-0.00007206,-0.00001699,0.00003268,0.00012666,0.
 00002933,-0.00001234,-0.00006645,0.00003219,-0.00005779,-0.00015547,0.
 00008122,-0.00000933,-0.00000758,-0.00000253,-0.00000189,-0.00001247,-
 0.00001465,-0.00000701,-0.00001232,-0.00000234,0.00000881,-0.00001849,
 0.00000039,0.00001242,-0.00001525,0.00002001,-0.00001294,0.00000100,0.
 00000741,-0.00000749,0.00000429,0.00002252,-0.00000843,-0.00002920,-0.
 00003039,-0.00000282,-0.00001295,-0.00001672,-0.00000452,0.00000498,0.
 00000773,0.00000658,-0.00000514,-0.00000185,0.00001147,-0.00001774,-0.
 00003274,0.10697003,-0.04115783,-0.06708359,0.01066004,-0.00388726,-0.
 01172146,-0.11770387,0.04511174,-0.00010764,0.00003475,-0.00014619,-0.
 00052691,-0.00001172,-0.00017115,-0.00014418,0.00004156,-0.00008252,-0
 .00029676,-0.00073111,-0.00015574,-0.00026116,0.00075789,-0.00013067,0
 .00041130,0.00017050,-0.00000619,-0.00006263,0.00000100,0.00003002,-0.
 00005561,-0.00006847,0.00002587,-0.00001605,0.00007789,0.00003429,0.00
 018940,-0.00038171,0.00003380,0.00010278,0.00014628,0.00001604,0.00072
 159,-0.00012029,0.00005463,0.00004734,-0.00002595,-0.00001741,0.000011
 27,0.00000061,-0.00001588,0.00006074,0.00002555,-0.00001956,-0.0001036
 0,0.00003193,-0.00010762,-0.00006014,-0.00006091,-0.00006428,0.0000039
 5,-0.00005996,-0.00001971,0.00000610,0.00007497,-0.00010469,0.00000526
 ,0.00000097,-0.00002632,0.00001751,-0.00002177,-0.00001315,0.00002051,
 -0.00001455,-0.00007492,0.00005038,0.00004667,-0.00002618,-0.00000293,
 -0.00001146,-0.00004580,0.00002814,-0.00000623,0.00000696,0.00002943,0
 .00002022,0.00000758,0.00002877,-0.00000376,0.00000856,-0.00007111,0.0
 0002825,0.00004185,-0.00002863,-0.00004252,0.00002887,0.00001813,-0.00
 002512,0.00000576,-0.00001372,-0.00004454,0.00001426,-0.00002956,0.000
 05697,0.00003982,0.00002683,0.00002851,0.00001681,0.00001479,-0.000029
 10,0.00001125,-0.00007387,-0.00001462,0.00003493,-0.00000281,0.0000605
 2,0.00002304,0.23798614,-0.09081843,-0.22780549,-0.03111253,0.01183074
 ,0.01294268,-0.20681051,0.07905643,0.21565645\\0.00004104,-0.00009828,
 -0.00003841,-0.00001653,0.00011217,0.00004653,-0.00001037,0.00017549,-
 0.00002954,0.00001227,-0.00017514,-0.00003174,0.00001643,-0.00011453,0
 .00005012,-0.00004330,0.00009931,-0.00003506,0.00007316,0.00004566,-0.
 00007527,0.00007947,-0.00002139,-0.00002656,-0.00004687,-0.00006064,0.
 00000693,0.00004588,0.00006089,0.00000660,-0.00007882,0.00002206,-0.00
 002979,-0.00007180,-0.00004510,-0.00007803,0.00006836,0.00005171,0.000
 04930,0.00000737,0.00002629,0.00000677,-0.00001845,0.00003077,-0.00000
 347,-0.00002573,-0.00004340,0.00002139,-0.00000822,-0.00002644,0.00000
 759,-0.00008248,0.00002725,-0.00000884,-0.00006846,-0.00005185,0.00004
 941,-0.00006738,0.00000366,0.00001310,0.00002571,0.00004306,0.00002150
 ,0.00001859,-0.00003010,-0.00000473,0.00006656,-0.00000338,0.00001304,
 0.00008337,-0.00002720,-0.00000770,0.00001935,0.00000108,-0.00000870,-
 0.00001501,-0.00000656,-0.00000282,-0.00001177,-0.00002349,0.00000115,
 -0.00001958,-0.00000101,-0.00000854,0.00001514,0.00000655,-0.00000250,
 0.00000343,-0.00001682,0.00000786,-0.00006814,-0.00001370,-0.00000043,
 -0.00000353,0.00001689,0.00000796,0.00006824,0.00001385,-0.00000074,-0
 .00004931,0.00001186,-0.00000150,0.00001192,0.00002352,0.00000144,0.00
 004950,-0.00001186,-0.00000138,0.00000254,0.00000317,0.00000700,0.0000
 0999,0.00002263,0.00003938,-0.00001255,-0.00002701,0.00003867\\\@


 ON A CLEAR DISK YOU CAN SEEK FOREVER.
 Job cpu time:  0 days  5 hours 15 minutes 38.9 seconds.
 File lengths (MBytes):  RWF=    749 Int=      0 D2E=      0 Chk=     16 Scr=      1
 Normal termination of Gaussian 09 at Wed Jun 11 13:47:25 2025.
