 Entering Gaussian System, Link 0=g09
 Input=WaC4.gjf
 Output=WaC4.log
 Initial command:
 /share/apps/g09/l1.exe /scratch/Gau-18476.inp -scrdir=/scratch/
 Entering Link 1 = /share/apps/g09/l1.exe PID=     18477.
  
 Copyright (c) 1988,1990,1992,1993,1995,1998,2003,2009,2010,
            Gaussian, Inc.  All Rights Reserved.
  
 This is part of the Gaussian(R) 09 program.  It is based on
 the Gaussian(R) 03 system (copyright 2003, Gaussian, Inc.),
 the Gaussian(R) 98 system (copyright 1998, Gaussian, Inc.),
 the Gaussian(R) 94 system (copyright 1995, Gaussian, Inc.),
 the Gaussian 92(TM) system (copyright 1992, Gaussian, Inc.),
 the Gaussian 90(TM) system (copyright 1990, Gaussian, Inc.),
 the Gaussian 88(TM) system (copyright 1988, Gaussian, Inc.),
 the Gaussian 86(TM) system (copyright 1986, Carnegie Mellon
 University), and the Gaussian 82(TM) system (copyright 1983,
 Carnegie Mellon University). Gaussian is a federally registered
 trademark of Gaussian, Inc.
  
 This software contains proprietary and confidential information,
 including trade secrets, belonging to Gaussian, Inc.
  
 This software is provided under written license and may be
 used, copied, transmitted, or stored only in accord with that
 written license.
  
 The following legend is applicable only to US Government
 contracts under FAR:
  
                    RESTRICTED RIGHTS LEGEND
  
 Use, reproduction and disclosure by the US Government is
 subject to restrictions as set forth in subparagraphs (a)
 and (c) of the Commercial Computer Software - Restricted
 Rights clause in FAR 52.227-19.
  
 Gaussian, Inc.
 340 Quinnipiac St., Bldg. 40, Wallingford CT 06492
  
  
 ---------------------------------------------------------------
 Warning -- This program may not be used in any manner that
 competes with the business of Gaussian, Inc. or will provide
 assistance to any competitor of Gaussian, Inc.  The licensee
 of this program is prohibited from giving any competitor of
 Gaussian, Inc. access to this program.  By using this program,
 the user acknowledges that Gaussian, Inc. is engaged in the
 business of creating and licensing software in the field of
 computational chemistry and represents and warrants to the
 licensee that it is not a competitor of Gaussian, Inc. and that
 it will not use this program in any manner prohibited above.
 ---------------------------------------------------------------
  

 Cite this work as:
 Gaussian 09, Revision B.01,
 M. J. Frisch, G. W. Trucks, H. B. Schlegel, G. E. Scuseria, 
 M. A. Robb, J. R. Cheeseman, G. Scalmani, V. Barone, B. Mennucci, 
 G. A. Petersson, H. Nakatsuji, M. Caricato, X. Li, H. P. Hratchian, 
 A. F. Izmaylov, J. Bloino, G. Zheng, J. L. Sonnenberg, M. Hada, 
 M. Ehara, K. Toyota, R. Fukuda, J. Hasegawa, M. Ishida, T. Nakajima, 
 Y. Honda, O. Kitao, H. Nakai, T. Vreven, J. A. Montgomery, Jr., 
 J. E. Peralta, F. Ogliaro, M. Bearpark, J. J. Heyd, E. Brothers, 
 K. N. Kudin, V. N. Staroverov, T. Keith, R. Kobayashi, J. Normand, 
 K. Raghavachari, A. Rendell, J. C. Burant, S. S. Iyengar, J. Tomasi, 
 M. Cossi, N. Rega, J. M. Millam, M. Klene, J. E. Knox, J. B. Cross, 
 V. Bakken, C. Adamo, J. Jaramillo, R. Gomperts, R. E. Stratmann, 
 O. Yazyev, A. J. Austin, R. Cammi, C. Pomelli, J. W. Ochterski, 
 R. L. Martin, K. Morokuma, V. G. Zakrzewski, G. A. Voth, 
 P. Salvador, J. J. Dannenberg, S. Dapprich, A. D. Daniels, 
 O. Farkas, J. B. Foresman, J. V. Ortiz, J. Cioslowski, 
 and D. J. Fox, Gaussian, Inc., Wallingford CT, 2010.
 
 ******************************************
 Gaussian 09:  AM64L-G09RevB.01 12-Aug-2010
                11-Jun-2025 
 ******************************************
 %nprocshared=16
 Will use up to   16 processors via shared memory.
 %mem=20GB
 ---------------------------------------------------
 # opt freq b3lyp/6-31g(d) geom=connectivity scf=xqc
 ---------------------------------------------------
 1/14=-1,18=20,19=15,26=3,38=1,57=2/1,3;
 2/9=110,12=2,17=6,18=5,40=1/2;
 3/5=1,6=6,7=1,11=2,16=1,25=1,30=1,71=1,74=-5/1,2,3;
 4//1;
 5/5=2,8=3,13=1,38=5/2,8;
 6/7=2,8=2,9=2,10=2,28=1/1;
 7//1,2,3,16;
 1/14=-1,18=20,19=15/3(2);
 2/9=110/2;
 99//99;
 2/9=110/2;
 3/5=1,6=6,7=1,11=2,16=1,25=1,30=1,71=1,74=-5/1,2,3;
 4/5=5,16=3/1;
 5/5=2,8=3,13=1,38=5/2,8;
 7//1,2,3,16;
 1/14=-1,18=20,19=15/3(-5);
 2/9=110/2;
 6/7=2,8=2,9=2,10=2,19=2,28=1/1;
 99/9=1/99;
 --------
 WaC-opt4
 --------
 Symbolic Z-matrix:
 Charge =  0 Multiplicity = 1
 C                    -1.4273    0.028     0. 
 C                    -0.6894    1.25      0. 
 C                    -0.7379   -1.222     0. 
 C                     0.7379    1.222     0. 
 C                     0.6894   -1.25      0. 
 C                     1.4273   -0.028     0. 
 C                    -2.8492    0.0558    0. 
 C                    -1.3762    2.4952    0. 
 C                    -1.473    -2.4394    0. 
 C                     1.473     2.4394    0. 
 C                     1.3762   -2.4952    0. 
 C                     2.8492   -0.0558    0. 
 C                    -3.5583   -1.1788    0. 
 C                    -2.8001    2.492     0. 
 C                    -3.5094    1.3173    0. 
 C                     2.8956    2.3803    0. 
 C                     2.8001   -2.492     0. 
 C                    -0.7582   -3.6708    0. 
 C                     3.5583    1.1788    0. 
 C                     0.6138   -3.6977    0. 
 C                    -2.8956   -2.3803    0. 
 C                     3.5094   -1.3173    0. 
 C                    -0.6138    3.6977    0. 
 C                     0.7582    3.6708    0. 
 H                    -4.6455   -1.1548    0. 
 H                    -3.3231    3.4454    0. 
 H                    -4.5967    1.3359    0. 
 H                     4.6455    1.1548    0. 
 H                     3.3231   -3.4454    0. 
 H                    -3.4555   -3.3126    0. 
 H                     1.1413   -4.6486    0. 
 H                     3.4555    3.3126    0. 
 H                    -1.1413    4.6486    0. 
 H                    -1.3226   -4.6003    0. 
 H                     4.5967   -1.3359    0. 
 H                     1.3226    4.6003    0. 
 O                    -3.4891   -1.1774   -1.4795 
 H                    -3.9394   -0.4292   -1.9153 
 H                    -3.0374   -1.7045   -2.1657 
 

 GradGradGradGradGradGradGradGradGradGradGradGradGradGradGradGradGradGrad
 Berny optimization.
 Initialization pass.
                           ----------------------------
                           !    Initial Parameters    !
                           ! (Angstroms and Degrees)  !
 --------------------------                            --------------------------
 ! Name  Definition              Value          Derivative Info.                !
 --------------------------------------------------------------------------------
 ! R1    R(1,2)                  1.4275         estimate D2E/DX2                !
 ! R2    R(1,3)                  1.4275         estimate D2E/DX2                !
 ! R3    R(1,7)                  1.4222         estimate D2E/DX2                !
 ! R4    R(2,4)                  1.4276         estimate D2E/DX2                !
 ! R5    R(2,8)                  1.422          estimate D2E/DX2                !
 ! R6    R(3,5)                  1.4276         estimate D2E/DX2                !
 ! R7    R(3,9)                  1.4221         estimate D2E/DX2                !
 ! R8    R(4,6)                  1.4275         estimate D2E/DX2                !
 ! R9    R(4,10)                 1.4221         estimate D2E/DX2                !
 ! R10   R(5,6)                  1.4275         estimate D2E/DX2                !
 ! R11   R(5,11)                 1.422          estimate D2E/DX2                !
 ! R12   R(6,12)                 1.4222         estimate D2E/DX2                !
 ! R13   R(7,13)                 1.4237         estimate D2E/DX2                !
 ! R14   R(7,15)                 1.4238         estimate D2E/DX2                !
 ! R15   R(8,14)                 1.4239         estimate D2E/DX2                !
 ! R16   R(8,23)                 1.4238         estimate D2E/DX2                !
 ! R17   R(9,18)                 1.4238         estimate D2E/DX2                !
 ! R18   R(9,21)                 1.4238         estimate D2E/DX2                !
 ! R19   R(10,16)                1.4238         estimate D2E/DX2                !
 ! R20   R(10,24)                1.4238         estimate D2E/DX2                !
 ! R21   R(11,17)                1.4239         estimate D2E/DX2                !
 ! R22   R(11,20)                1.4238         estimate D2E/DX2                !
 ! R23   R(12,19)                1.4237         estimate D2E/DX2                !
 ! R24   R(12,22)                1.4238         estimate D2E/DX2                !
 ! R25   R(13,21)                1.3721         estimate D2E/DX2                !
 ! R26   R(13,25)                1.0875         estimate D2E/DX2                !
 ! R27   R(13,37)                1.4811         estimate D2E/DX2                !
 ! R28   R(14,15)                1.3722         estimate D2E/DX2                !
 ! R29   R(14,26)                1.0874         estimate D2E/DX2                !
 ! R30   R(15,27)                1.0875         estimate D2E/DX2                !
 ! R31   R(16,19)                1.3721         estimate D2E/DX2                !
 ! R32   R(16,32)                1.0875         estimate D2E/DX2                !
 ! R33   R(17,22)                1.3722         estimate D2E/DX2                !
 ! R34   R(17,29)                1.0874         estimate D2E/DX2                !
 ! R35   R(18,20)                1.3723         estimate D2E/DX2                !
 ! R36   R(18,34)                1.0874         estimate D2E/DX2                !
 ! R37   R(19,28)                1.0875         estimate D2E/DX2                !
 ! R38   R(20,31)                1.0874         estimate D2E/DX2                !
 ! R39   R(21,30)                1.0875         estimate D2E/DX2                !
 ! R40   R(22,35)                1.0875         estimate D2E/DX2                !
 ! R41   R(23,24)                1.3723         estimate D2E/DX2                !
 ! R42   R(23,33)                1.0874         estimate D2E/DX2                !
 ! R43   R(24,36)                1.0874         estimate D2E/DX2                !
 ! R44   R(37,38)                0.976          estimate D2E/DX2                !
 ! R45   R(37,39)                0.9761         estimate D2E/DX2                !
 ! A1    A(2,1,3)              119.9969         estimate D2E/DX2                !
 ! A2    A(2,1,7)              120.0055         estimate D2E/DX2                !
 ! A3    A(3,1,7)              119.9977         estimate D2E/DX2                !
 ! A4    A(1,2,4)              120.0017         estimate D2E/DX2                !
 ! A5    A(1,2,8)              119.9952         estimate D2E/DX2                !
 ! A6    A(4,2,8)              120.0031         estimate D2E/DX2                !
 ! A7    A(1,3,5)              120.0015         estimate D2E/DX2                !
 ! A8    A(1,3,9)              119.9976         estimate D2E/DX2                !
 ! A9    A(5,3,9)              120.0009         estimate D2E/DX2                !
 ! A10   A(2,4,6)              120.0015         estimate D2E/DX2                !
 ! A11   A(2,4,10)             120.0009         estimate D2E/DX2                !
 ! A12   A(6,4,10)             119.9976         estimate D2E/DX2                !
 ! A13   A(3,5,6)              120.0017         estimate D2E/DX2                !
 ! A14   A(3,5,11)             120.0031         estimate D2E/DX2                !
 ! A15   A(6,5,11)             119.9952         estimate D2E/DX2                !
 ! A16   A(4,6,5)              119.9969         estimate D2E/DX2                !
 ! A17   A(4,6,12)             119.9977         estimate D2E/DX2                !
 ! A18   A(5,6,12)             120.0055         estimate D2E/DX2                !
 ! A19   A(1,7,13)             118.7511         estimate D2E/DX2                !
 ! A20   A(1,7,15)             118.7452         estimate D2E/DX2                !
 ! A21   A(13,7,15)            122.5037         estimate D2E/DX2                !
 ! A22   A(2,8,14)             118.7505         estimate D2E/DX2                !
 ! A23   A(2,8,23)             118.7455         estimate D2E/DX2                !
 ! A24   A(14,8,23)            122.504          estimate D2E/DX2                !
 ! A25   A(3,9,18)             118.7411         estimate D2E/DX2                !
 ! A26   A(3,9,21)             118.7458         estimate D2E/DX2                !
 ! A27   A(18,9,21)            122.5131         estimate D2E/DX2                !
 ! A28   A(4,10,16)            118.7458         estimate D2E/DX2                !
 ! A29   A(4,10,24)            118.7411         estimate D2E/DX2                !
 ! A30   A(16,10,24)           122.5131         estimate D2E/DX2                !
 ! A31   A(5,11,17)            118.7505         estimate D2E/DX2                !
 ! A32   A(5,11,20)            118.7455         estimate D2E/DX2                !
 ! A33   A(17,11,20)           122.504          estimate D2E/DX2                !
 ! A34   A(6,12,19)            118.7511         estimate D2E/DX2                !
 ! A35   A(6,12,22)            118.7452         estimate D2E/DX2                !
 ! A36   A(19,12,22)           122.5037         estimate D2E/DX2                !
 ! A37   A(7,13,21)            121.2494         estimate D2E/DX2                !
 ! A38   A(7,13,25)            118.6066         estimate D2E/DX2                !
 ! A39   A(7,13,37)             88.6196         estimate D2E/DX2                !
 ! A40   A(21,13,25)           120.144          estimate D2E/DX2                !
 ! A41   A(21,13,37)            88.7544         estimate D2E/DX2                !
 ! A42   A(25,13,37)            92.6761         estimate D2E/DX2                !
 ! A43   A(8,14,15)            121.2529         estimate D2E/DX2                !
 ! A44   A(8,14,26)            118.6188         estimate D2E/DX2                !
 ! A45   A(15,14,26)           120.1283         estimate D2E/DX2                !
 ! A46   A(7,15,14)            121.2507         estimate D2E/DX2                !
 ! A47   A(7,15,27)            118.6051         estimate D2E/DX2                !
 ! A48   A(14,15,27)           120.1441         estimate D2E/DX2                !
 ! A49   A(10,16,19)           121.2583         estimate D2E/DX2                !
 ! A50   A(10,16,32)           118.6083         estimate D2E/DX2                !
 ! A51   A(19,16,32)           120.1334         estimate D2E/DX2                !
 ! A52   A(11,17,22)           121.2529         estimate D2E/DX2                !
 ! A53   A(11,17,29)           118.6188         estimate D2E/DX2                !
 ! A54   A(22,17,29)           120.1283         estimate D2E/DX2                !
 ! A55   A(9,18,20)            121.2574         estimate D2E/DX2                !
 ! A56   A(9,18,34)            118.5993         estimate D2E/DX2                !
 ! A57   A(20,18,34)           120.1432         estimate D2E/DX2                !
 ! A58   A(12,19,16)           121.2494         estimate D2E/DX2                !
 ! A59   A(12,19,28)           118.6066         estimate D2E/DX2                !
 ! A60   A(16,19,28)           120.144          estimate D2E/DX2                !
 ! A61   A(11,20,18)           121.252          estimate D2E/DX2                !
 ! A62   A(11,20,31)           118.606          estimate D2E/DX2                !
 ! A63   A(18,20,31)           120.142          estimate D2E/DX2                !
 ! A64   A(9,21,13)            121.2583         estimate D2E/DX2                !
 ! A65   A(9,21,30)            118.6083         estimate D2E/DX2                !
 ! A66   A(13,21,30)           120.1334         estimate D2E/DX2                !
 ! A67   A(12,22,17)           121.2507         estimate D2E/DX2                !
 ! A68   A(12,22,35)           118.6051         estimate D2E/DX2                !
 ! A69   A(17,22,35)           120.1441         estimate D2E/DX2                !
 ! A70   A(8,23,24)            121.252          estimate D2E/DX2                !
 ! A71   A(8,23,33)            118.606          estimate D2E/DX2                !
 ! A72   A(24,23,33)           120.142          estimate D2E/DX2                !
 ! A73   A(10,24,23)           121.2574         estimate D2E/DX2                !
 ! A74   A(10,24,36)           118.5993         estimate D2E/DX2                !
 ! A75   A(23,24,36)           120.1432         estimate D2E/DX2                !
 ! A76   A(13,37,38)           115.1643         estimate D2E/DX2                !
 ! A77   A(13,37,39)           136.3323         estimate D2E/DX2                !
 ! A78   A(38,37,39)           108.2757         estimate D2E/DX2                !
 ! D1    D(3,1,2,4)              0.0            estimate D2E/DX2                !
 ! D2    D(3,1,2,8)            180.0            estimate D2E/DX2                !
 ! D3    D(7,1,2,4)            180.0            estimate D2E/DX2                !
 ! D4    D(7,1,2,8)              0.0            estimate D2E/DX2                !
 ! D5    D(2,1,3,5)              0.0            estimate D2E/DX2                !
 ! D6    D(2,1,3,9)            180.0            estimate D2E/DX2                !
 ! D7    D(7,1,3,5)            180.0            estimate D2E/DX2                !
 ! D8    D(7,1,3,9)              0.0            estimate D2E/DX2                !
 ! D9    D(2,1,7,13)           180.0            estimate D2E/DX2                !
 ! D10   D(2,1,7,15)             0.0            estimate D2E/DX2                !
 ! D11   D(3,1,7,13)             0.0            estimate D2E/DX2                !
 ! D12   D(3,1,7,15)           180.0            estimate D2E/DX2                !
 ! D13   D(1,2,4,6)              0.0            estimate D2E/DX2                !
 ! D14   D(1,2,4,10)           180.0            estimate D2E/DX2                !
 ! D15   D(8,2,4,6)            180.0            estimate D2E/DX2                !
 ! D16   D(8,2,4,10)             0.0            estimate D2E/DX2                !
 ! D17   D(1,2,8,14)             0.0            estimate D2E/DX2                !
 ! D18   D(1,2,8,23)           180.0            estimate D2E/DX2                !
 ! D19   D(4,2,8,14)           180.0            estimate D2E/DX2                !
 ! D20   D(4,2,8,23)             0.0            estimate D2E/DX2                !
 ! D21   D(1,3,5,6)              0.0            estimate D2E/DX2                !
 ! D22   D(1,3,5,11)           180.0            estimate D2E/DX2                !
 ! D23   D(9,3,5,6)            180.0            estimate D2E/DX2                !
 ! D24   D(9,3,5,11)             0.0            estimate D2E/DX2                !
 ! D25   D(1,3,9,18)           180.0            estimate D2E/DX2                !
 ! D26   D(1,3,9,21)             0.0            estimate D2E/DX2                !
 ! D27   D(5,3,9,18)             0.0            estimate D2E/DX2                !
 ! D28   D(5,3,9,21)           180.0            estimate D2E/DX2                !
 ! D29   D(2,4,6,5)              0.0            estimate D2E/DX2                !
 ! D30   D(2,4,6,12)           180.0            estimate D2E/DX2                !
 ! D31   D(10,4,6,5)           180.0            estimate D2E/DX2                !
 ! D32   D(10,4,6,12)            0.0            estimate D2E/DX2                !
 ! D33   D(2,4,10,16)          180.0            estimate D2E/DX2                !
 ! D34   D(2,4,10,24)            0.0            estimate D2E/DX2                !
 ! D35   D(6,4,10,16)            0.0            estimate D2E/DX2                !
 ! D36   D(6,4,10,24)          180.0            estimate D2E/DX2                !
 ! D37   D(3,5,6,4)              0.0            estimate D2E/DX2                !
 ! D38   D(3,5,6,12)           180.0            estimate D2E/DX2                !
 ! D39   D(11,5,6,4)           180.0            estimate D2E/DX2                !
 ! D40   D(11,5,6,12)            0.0            estimate D2E/DX2                !
 ! D41   D(3,5,11,17)          180.0            estimate D2E/DX2                !
 ! D42   D(3,5,11,20)            0.0            estimate D2E/DX2                !
 ! D43   D(6,5,11,17)            0.0            estimate D2E/DX2                !
 ! D44   D(6,5,11,20)          180.0            estimate D2E/DX2                !
 ! D45   D(4,6,12,19)            0.0            estimate D2E/DX2                !
 ! D46   D(4,6,12,22)          180.0            estimate D2E/DX2                !
 ! D47   D(5,6,12,19)          180.0            estimate D2E/DX2                !
 ! D48   D(5,6,12,22)            0.0            estimate D2E/DX2                !
 ! D49   D(1,7,13,21)            0.0            estimate D2E/DX2                !
 ! D50   D(1,7,13,25)          180.0            estimate D2E/DX2                !
 ! D51   D(1,7,13,37)          -87.7044         estimate D2E/DX2                !
 ! D52   D(15,7,13,21)         180.0            estimate D2E/DX2                !
 ! D53   D(15,7,13,25)           0.0            estimate D2E/DX2                !
 ! D54   D(15,7,13,37)          92.2956         estimate D2E/DX2                !
 ! D55   D(1,7,15,14)            0.0            estimate D2E/DX2                !
 ! D56   D(1,7,15,27)          180.0            estimate D2E/DX2                !
 ! D57   D(13,7,15,14)         180.0            estimate D2E/DX2                !
 ! D58   D(13,7,15,27)           0.0            estimate D2E/DX2                !
 ! D59   D(2,8,14,15)            0.0            estimate D2E/DX2                !
 ! D60   D(2,8,14,26)          180.0            estimate D2E/DX2                !
 ! D61   D(23,8,14,15)         180.0            estimate D2E/DX2                !
 ! D62   D(23,8,14,26)           0.0            estimate D2E/DX2                !
 ! D63   D(2,8,23,24)            0.0            estimate D2E/DX2                !
 ! D64   D(2,8,23,33)          180.0            estimate D2E/DX2                !
 ! D65   D(14,8,23,24)         180.0            estimate D2E/DX2                !
 ! D66   D(14,8,23,33)           0.0            estimate D2E/DX2                !
 ! D67   D(3,9,18,20)            0.0            estimate D2E/DX2                !
 ! D68   D(3,9,18,34)          180.0            estimate D2E/DX2                !
 ! D69   D(21,9,18,20)         180.0            estimate D2E/DX2                !
 ! D70   D(21,9,18,34)           0.0            estimate D2E/DX2                !
 ! D71   D(3,9,21,13)            0.0            estimate D2E/DX2                !
 ! D72   D(3,9,21,30)          180.0            estimate D2E/DX2                !
 ! D73   D(18,9,21,13)         180.0            estimate D2E/DX2                !
 ! D74   D(18,9,21,30)           0.0            estimate D2E/DX2                !
 ! D75   D(4,10,16,19)           0.0            estimate D2E/DX2                !
 ! D76   D(4,10,16,32)         180.0            estimate D2E/DX2                !
 ! D77   D(24,10,16,19)        180.0            estimate D2E/DX2                !
 ! D78   D(24,10,16,32)          0.0            estimate D2E/DX2                !
 ! D79   D(4,10,24,23)           0.0            estimate D2E/DX2                !
 ! D80   D(4,10,24,36)         180.0            estimate D2E/DX2                !
 ! D81   D(16,10,24,23)        180.0            estimate D2E/DX2                !
 ! D82   D(16,10,24,36)          0.0            estimate D2E/DX2                !
 ! D83   D(5,11,17,22)           0.0            estimate D2E/DX2                !
 ! D84   D(5,11,17,29)         180.0            estimate D2E/DX2                !
 ! D85   D(20,11,17,22)        180.0            estimate D2E/DX2                !
 ! D86   D(20,11,17,29)          0.0            estimate D2E/DX2                !
 ! D87   D(5,11,20,18)           0.0            estimate D2E/DX2                !
 ! D88   D(5,11,20,31)         180.0            estimate D2E/DX2                !
 ! D89   D(17,11,20,18)        180.0            estimate D2E/DX2                !
 ! D90   D(17,11,20,31)          0.0            estimate D2E/DX2                !
 ! D91   D(6,12,19,16)           0.0            estimate D2E/DX2                !
 ! D92   D(6,12,19,28)         180.0            estimate D2E/DX2                !
 ! D93   D(22,12,19,16)        180.0            estimate D2E/DX2                !
 ! D94   D(22,12,19,28)          0.0            estimate D2E/DX2                !
 ! D95   D(6,12,22,17)           0.0            estimate D2E/DX2                !
 ! D96   D(6,12,22,35)         180.0            estimate D2E/DX2                !
 ! D97   D(19,12,22,17)        180.0            estimate D2E/DX2                !
 ! D98   D(19,12,22,35)          0.0            estimate D2E/DX2                !
 ! D99   D(7,13,21,9)            0.0            estimate D2E/DX2                !
 ! D100  D(7,13,21,30)         180.0            estimate D2E/DX2                !
 ! D101  D(25,13,21,9)         180.0            estimate D2E/DX2                !
 ! D102  D(25,13,21,30)          0.0            estimate D2E/DX2                !
 ! D103  D(37,13,21,9)          87.6286         estimate D2E/DX2                !
 ! D104  D(37,13,21,30)        -92.3714         estimate D2E/DX2                !
 ! D105  D(7,13,37,38)         -62.0036         estimate D2E/DX2                !
 ! D106  D(7,13,37,39)         111.6991         estimate D2E/DX2                !
 ! D107  D(21,13,37,38)        176.6935         estimate D2E/DX2                !
 ! D108  D(21,13,37,39)         -9.6038         estimate D2E/DX2                !
 ! D109  D(25,13,37,38)         56.5727         estimate D2E/DX2                !
 ! D110  D(25,13,37,39)       -129.7247         estimate D2E/DX2                !
 ! D111  D(8,14,15,7)            0.0            estimate D2E/DX2                !
 ! D112  D(8,14,15,27)         180.0            estimate D2E/DX2                !
 ! D113  D(26,14,15,7)         180.0            estimate D2E/DX2                !
 ! D114  D(26,14,15,27)          0.0            estimate D2E/DX2                !
 ! D115  D(10,16,19,12)          0.0            estimate D2E/DX2                !
 ! D116  D(10,16,19,28)        180.0            estimate D2E/DX2                !
 ! D117  D(32,16,19,12)        180.0            estimate D2E/DX2                !
 ! D118  D(32,16,19,28)          0.0            estimate D2E/DX2                !
 ! D119  D(11,17,22,12)          0.0            estimate D2E/DX2                !
 ! D120  D(11,17,22,35)        180.0            estimate D2E/DX2                !
 ! D121  D(29,17,22,12)        180.0            estimate D2E/DX2                !
 ! D122  D(29,17,22,35)          0.0            estimate D2E/DX2                !
 ! D123  D(9,18,20,11)           0.0            estimate D2E/DX2                !
 ! D124  D(9,18,20,31)         180.0            estimate D2E/DX2                !
 ! D125  D(34,18,20,11)        180.0            estimate D2E/DX2                !
 ! D126  D(34,18,20,31)          0.0            estimate D2E/DX2                !
 ! D127  D(8,23,24,10)           0.0            estimate D2E/DX2                !
 ! D128  D(8,23,24,36)         180.0            estimate D2E/DX2                !
 ! D129  D(33,23,24,10)        180.0            estimate D2E/DX2                !
 ! D130  D(33,23,24,36)          0.0            estimate D2E/DX2                !
 --------------------------------------------------------------------------------
 Trust Radius=3.00D-01 FncErr=1.00D-07 GrdErr=1.00D-06
 Number of steps in this run=    234 maximum allowed number of steps=    234.
 GradGradGradGradGradGradGradGradGradGradGradGradGradGradGradGradGradGrad

                          Input orientation:                          
 ---------------------------------------------------------------------
 Center     Atomic      Atomic             Coordinates (Angstroms)
 Number     Number       Type             X           Y           Z
 ---------------------------------------------------------------------
      1          6           0       -1.427300    0.028000    0.000000
      2          6           0       -0.689400    1.250000    0.000000
      3          6           0       -0.737900   -1.222000    0.000000
      4          6           0        0.737900    1.222000    0.000000
      5          6           0        0.689400   -1.250000    0.000000
      6          6           0        1.427300   -0.028000    0.000000
      7          6           0       -2.849200    0.055800    0.000000
      8          6           0       -1.376200    2.495200    0.000000
      9          6           0       -1.473000   -2.439400    0.000000
     10          6           0        1.473000    2.439400    0.000000
     11          6           0        1.376200   -2.495200    0.000000
     12          6           0        2.849200   -0.055800    0.000000
     13          6           0       -3.558300   -1.178800    0.000000
     14          6           0       -2.800100    2.492000    0.000000
     15          6           0       -3.509400    1.317300    0.000000
     16          6           0        2.895600    2.380300    0.000000
     17          6           0        2.800100   -2.492000    0.000000
     18          6           0       -0.758200   -3.670800    0.000000
     19          6           0        3.558300    1.178800    0.000000
     20          6           0        0.613800   -3.697700    0.000000
     21          6           0       -2.895600   -2.380300    0.000000
     22          6           0        3.509400   -1.317300    0.000000
     23          6           0       -0.613800    3.697700    0.000000
     24          6           0        0.758200    3.670800    0.000000
     25          1           0       -4.645500   -1.154800    0.000000
     26          1           0       -3.323100    3.445400    0.000000
     27          1           0       -4.596700    1.335900    0.000000
     28          1           0        4.645500    1.154800    0.000000
     29          1           0        3.323100   -3.445400    0.000000
     30          1           0       -3.455500   -3.312600    0.000000
     31          1           0        1.141300   -4.648600    0.000000
     32          1           0        3.455500    3.312600    0.000000
     33          1           0       -1.141300    4.648600    0.000000
     34          1           0       -1.322600   -4.600300    0.000000
     35          1           0        4.596700   -1.335900    0.000000
     36          1           0        1.322600    4.600300    0.000000
     37          8           0       -3.489100   -1.177400   -1.479500
     38          1           0       -3.939400   -0.429200   -1.915300
     39          1           0       -3.037400   -1.704500   -2.165700
 ---------------------------------------------------------------------
                    Distance matrix (angstroms):
                    1          2          3          4          5
     1  C    0.000000
     2  C    1.427508   0.000000
     3  C    1.427506   2.472476   0.000000
     4  C    2.472595   1.427575   2.855017   0.000000
     5  C    2.472590   2.855011   1.427575   2.472476   0.000000
     6  C    2.855149   2.472590   2.472595   1.427506   1.427508
     7  C    1.422172   2.467965   2.467866   3.771911   3.771844
     8  C    2.467729   1.422047   3.771605   2.467885   4.277058
     9  C    2.467823   3.771697   1.422123   4.277140   2.467923
    10  C    3.771815   2.467923   4.277140   1.422123   3.771697
    11  C    3.771757   4.277058   2.467885   3.771605   1.422047
    12  C    4.277321   3.771844   3.771911   2.467866   2.467965
    13  C    2.448985   3.758944   2.820731   4.921501   4.248297
    14  C    2.820616   2.449004   4.248113   3.759035   5.116559
    15  C    2.448966   2.820803   3.758890   4.248369   4.921479
    16  C    4.921461   3.758963   5.116531   2.448944   4.248105
    17  C    4.921515   5.116559   3.759035   4.248113   2.449004
    18  C    3.758832   4.921281   2.448884   5.116425   2.820606
    19  C    5.116693   4.248297   4.921501   2.820731   3.758944
    20  C    4.248168   5.116450   2.820671   4.921265   2.448867
    21  C    2.820605   4.248105   2.448944   5.116531   3.758963
    22  C    5.116722   4.921479   4.248369   3.758890   2.820803
    23  C    3.758787   2.448867   4.921265   2.820671   5.116450
    24  C    4.248106   2.820606   5.116425   2.448884   4.921281
    25  H    3.428677   4.629664   3.908178   5.884741   5.335749
    26  H    3.908028   3.428725   5.335530   4.629819   6.176321
    27  H    3.428658   3.908244   4.629599   5.335816   5.884703
    28  H    6.176454   5.335749   5.884741   3.908178   4.629664
    29  H    5.884795   6.176321   4.629819   5.335530   3.428725
    30  H    3.908095   5.335600   3.428696   6.176342   4.629742
    31  H    5.335569   6.176159   3.908066   5.884444   3.428512
    32  H    5.884754   4.629742   6.176342   3.428696   5.335600
    33  H    4.629443   3.428512   5.884444   3.908066   6.176159
    34  H    4.629484   5.884467   3.428525   6.176151   3.908024
    35  H    6.176471   5.884703   5.335816   4.629599   3.908244
    36  H    5.335530   3.908024   6.176151   3.428525   5.884467
    37  O    2.809436   3.989926   3.124102   5.080706   4.433289
    38  H    3.191873   4.129236   3.813988   5.317139   5.076207
    39  H    3.206904   4.351141   3.195428   5.244764   4.334266
                    6          7          8          9         10
     6  C    0.000000
     7  C    4.277321   0.000000
     8  C    3.771757   2.849632   0.000000
     9  C    3.771815   2.849553   4.935549   0.000000
    10  C    2.467823   4.935885   2.849746   5.699264   0.000000
    11  C    2.467729   4.935748   5.699105   2.849746   4.935549
    12  C    1.422172   5.699493   4.935748   4.935885   2.849553
    13  C    5.116693   1.423749   4.273153   2.436717   6.197205
    14  C    4.921515   2.436695   1.423904   5.106848   4.273424
    15  C    5.116722   1.423814   2.436799   4.273139   5.107193
    16  C    2.820605   6.197260   4.273345   6.504935   1.423827
    17  C    2.820616   6.197247   6.504894   4.273424   5.106848
    18  C    4.248106   4.273152   6.196893   1.423828   6.504829
    19  C    2.448985   6.505166   5.107073   6.197205   2.436717
    20  C    3.758787   5.106969   6.504776   2.436812   6.196953
    21  C    4.921461   2.436542   5.106768   1.423827   6.504935
    22  C    2.448966   6.505167   6.197116   5.107193   4.273139
    23  C    4.248168   4.273225   1.423819   6.196953   2.436812
    24  C    3.758832   5.107011   2.436739   6.504829   1.423828
    25  H    6.176454   2.166159   4.900084   3.422711   7.096078
    26  H    5.884795   3.422568   2.166402   6.168771   4.900471
    27  H    6.176471   2.166198   3.422805   4.900040   6.169195
    28  H    3.428677   7.574848   6.169080   7.096078   3.422711
    29  H    3.908028   7.096174   7.574573   4.900471   6.168771
    30  H    5.884754   3.422531   6.168795   2.166284   7.574669
    31  H    4.629443   6.168912   7.574410   3.422737   7.095757
    32  H    3.908095   7.096195   4.900354   7.574669   2.166284
    33  H    5.335569   4.900075   2.166174   7.095757   3.422737
    34  H    5.335530   4.899977   7.095702   2.166128   7.574481
    35  H    3.428658   7.574844   7.095975   6.169195   4.900040
    36  H    4.629484   6.168987   3.422713   7.574481   2.166128
    37  O    5.261276   2.029575   4.487901   2.801111   6.316059
    38  H    5.712338   2.256576   4.334799   3.713813   6.418046
    39  H    5.237791   2.797201   5.008725   2.770863   6.496605
                   11         12         13         14         15
    11  C    0.000000
    12  C    2.849632   0.000000
    13  C    5.107073   6.505166   0.000000
    14  C    6.504894   6.197247   3.748285   0.000000
    15  C    6.197116   6.505167   2.496579   1.372234   0.000000
    16  C    5.106768   2.436542   7.370212   5.696795   6.492611
    17  C    1.423904   2.436695   6.492592   7.496832   7.370248
    18  C    2.436739   5.107011   3.748416   6.492262   5.696511
    19  C    4.273153   1.423749   7.496951   6.492592   7.069057
    20  C    1.423819   4.273225   4.873528   7.068741   6.492380
    21  C    4.273345   6.197260   1.372142   4.873236   3.748199
    22  C    2.436799   1.423814   7.069057   7.370248   7.496977
    23  C    6.504776   5.106969   5.696519   2.496722   3.748440
    24  C    6.196893   4.273152   6.492364   3.748475   4.873538
    25  H    6.169080   7.574848   1.087465   4.087132   2.720662
    26  H    7.574573   7.096174   4.630178   1.087428   2.136239
    27  H    7.095975   7.574844   2.720660   2.136431   1.087459
    28  H    4.900084   2.166159   8.529245   7.564725   8.156519
    29  H    2.166402   3.422568   7.245077   8.529144   8.328647
    30  H    4.900354   7.096195   2.136275   5.841484   4.630214
    31  H    2.166174   4.900075   5.841725   8.156151   7.564455
    32  H    6.168795   3.422531   8.328629   6.309193   7.245071
    33  H    7.574410   6.168912   6.308762   2.720761   4.087231
    34  H    3.422713   6.168987   4.087177   7.244565   6.308731
    35  H    3.422805   2.166198   8.156513   8.328593   8.529263
    36  H    7.095702   4.899977   7.564468   4.630506   5.841773
    37  O    5.253252   6.604616   1.481118   4.015985   2.900493
    38  H    6.016006   7.063490   2.091772   3.674206   2.627458
    39  H    4.979491   6.485409   2.288658   4.728338   3.747575
                   16         17         18         19         20
    16  C    0.000000
    17  C    4.873236   0.000000
    18  C    7.068668   3.748475   0.000000
    19  C    1.372142   3.748285   6.492364   0.000000
    20  C    6.492203   2.496722   1.372264   5.696519   0.000000
    21  C    7.496753   5.696795   2.496772   7.370212   3.748524
    22  C    3.748199   1.372234   4.873538   2.496579   3.748440
    23  C    3.748524   7.068741   7.369915   4.873528   7.496595
    24  C    2.496772   6.492262   7.496570   3.748416   7.369915
    25  H    8.328573   7.564725   4.630481   8.529245   5.841796
    26  H    6.309253   8.529144   7.564325   7.245077   8.156167
    27  H    7.564743   8.328593   6.308813   8.156513   7.244753
    28  H    2.136352   4.087132   7.244749   1.087465   6.308832
    29  H    5.841364   1.087428   4.087519   4.630178   2.721022
    30  H    8.529102   6.309193   2.720980   8.328629   4.087481
    31  H    7.244515   2.720761   2.136397   6.308762   1.087413
    32  H    1.087507   5.841484   8.156172   2.136275   7.564362
    33  H    4.630523   8.156151   8.328216   5.841725   8.528839
    34  H    8.156101   4.630506   1.087436   7.564468   2.136430
    35  H    4.087038   2.136431   5.841807   2.720660   4.630507
    36  H    2.720796   7.244565   8.528823   4.087177   8.328217
    37  O    7.457248   6.593264   3.982936   7.576704   5.037323
    38  H    7.634061   7.303724   4.929136   7.903768   5.923099
    39  H    7.521724   6.275892   3.708281   7.517109   4.689815
                   21         22         23         24         25
    21  C    0.000000
    22  C    6.492611   0.000000
    23  C    6.492203   6.492380   0.000000
    24  C    7.068668   5.696511   1.372264   0.000000
    25  H    2.136352   8.156519   6.308832   7.244749   0.000000
    26  H    5.841364   8.328647   2.721022   4.087519   4.786500
    27  H    4.087038   8.529263   4.630507   5.841807   2.491178
    28  H    8.328573   2.720662   5.841796   4.630481   9.573763
    29  H    6.309253   2.136239   8.156167   7.564325   8.291287
    30  H    1.087507   7.245071   7.564362   8.156172   2.464184
    31  H    4.630523   4.087231   8.528839   8.328216   6.759711
    32  H    8.529102   4.630214   4.087481   2.720980   9.251155
    33  H    7.244515   7.564455   1.087413   2.136397   6.779297
    34  H    2.720796   5.841773   8.328217   8.528823   4.786767
    35  H    7.564743   1.087459   7.244753   6.308813   9.243974
    36  H    8.156101   6.308731   2.136430   1.087436   8.290922
    37  O    1.997031   7.154544   5.850032   6.613132   1.877949
    38  H    2.926548   7.742204   5.635538   6.522716   2.166436
    39  H    2.273119   6.906574   6.304590   6.927531   2.752892
                   26         27         28         29         30
    26  H    0.000000
    27  H    2.464152   0.000000
    28  H    8.291287   9.243974   0.000000
    29  H    9.573667   9.251165   4.786500   0.000000
    30  H    6.759297   4.786532   9.251155   6.779901   0.000000
    31  H    9.243576   8.290892   6.779297   2.491574   4.787010
    32  H    6.779901   8.291277   2.464184   6.759297   9.573672
    33  H    2.491574   4.786833   6.759711   9.243576   8.290731
    34  H    8.290675   6.779248   8.290922   4.787100   2.491472
    35  H    9.251165   9.573772   2.491178   2.464152   8.291277
    36  H    4.787100   6.759765   4.786767   8.290675   9.243605
    37  O    4.856620   3.119675   8.590681   7.330676   2.597908
    38  H    4.365859   2.686260   8.937446   8.093809   3.495215
    39  H    5.594046   4.045455   8.478963   6.940962   2.729661
                   31         32         33         34         35
    31  H    0.000000
    32  H    8.290731   0.000000
    33  H    9.573306   4.787010   0.000000
    34  H    2.464373   9.243605   9.250677   0.000000
    35  H    4.786833   4.786532   8.290892   6.759765   0.000000
    36  H    9.250677   2.491472   2.464373   9.573303   6.779248
    37  O    5.973169   8.400981   6.453167   4.312643   8.221569
    38  H    6.876425   8.506115   6.105882   5.283379   8.795197
    39  H    5.551533   8.486419   6.974764   4.002056   7.943904
                   36         37         38         39
    36  H    0.000000
    37  O    7.663106   0.000000
    38  H    7.526811   0.975958   0.000000
    39  H    7.965573   0.976083   1.581991   0.000000
 Stoichiometry    C24H14O
 Framework group  C1[X(C24H14O)]
 Deg. of freedom   111
 Full point group                 C1      NOp   1
 Largest Abelian subgroup         C1      NOp   1
 Largest concise Abelian subgroup C1      NOp   1
                         Standard orientation:                         
 ---------------------------------------------------------------------
 Center     Atomic      Atomic             Coordinates (Angstroms)
 Number     Number       Type             X           Y           Z
 ---------------------------------------------------------------------
      1          6           0        1.118492    0.472134   -0.161766
      2          6           0        0.038349    1.403257   -0.097879
      3          6           0        0.853489   -0.930476   -0.146593
      4          6           0       -1.306797    0.931769   -0.018818
      5          6           0       -0.491657   -1.401964   -0.067532
      6          6           0       -1.571800   -0.470841   -0.003645
      7          6           0        2.458579    0.941748   -0.240530
      8          6           0        0.302380    2.800496   -0.112997
      9          6           0        1.929545   -1.858101   -0.210238
     10          6           0       -2.382853    1.859394    0.044827
     11          6           0       -0.755687   -2.799203   -0.052414
     12          6           0       -2.911886   -0.940455    0.075119
     13          6           0        3.515324   -0.010324   -0.303046
     14          6           0        1.654008    3.241278   -0.192449
     15          6           0        2.692306    2.346184   -0.253861
     16          6           0       -3.713864    1.359821    0.123047
     17          6           0       -2.107316   -3.239985    0.027038
     18          6           0        1.634662   -3.250955   -0.193303
     19          6           0       -3.968632    0.011617    0.137635
     20          6           0        0.341628   -3.704160   -0.117305
     21          6           0        3.260557   -1.358528   -0.288458
     22          6           0       -3.145614   -2.344891    0.088450
     23          6           0       -0.794936    3.705453   -0.048106
     24          6           0       -2.087970    3.252248    0.027892
     25          1           0        4.539115    0.351356   -0.363218
     26          1           0        1.853457    4.310198   -0.203865
     27          1           0        3.717872    2.702764   -0.314139
     28          1           0       -4.992422   -0.350063    0.197807
     29          1           0       -2.306765   -4.308905    0.038454
     30          1           0        4.081722   -2.069864   -0.337029
     31          1           0        0.137133   -4.772108   -0.105591
     32          1           0       -4.535030    2.071157    0.171618
     33          1           0       -0.590440    4.773401   -0.059820
     34          1           0        2.459225   -3.958228   -0.242072
     35          1           0       -4.171179   -2.701471    0.148728
     36          1           0       -2.912532    3.959521    0.076661
     37          8           0        3.536215   -0.031016    1.177781
     38          1           0        3.756167    0.820133    1.601645
     39          1           0        3.312094   -0.672860    1.878169
 ---------------------------------------------------------------------
 Rotational constants (GHZ):      0.3255184      0.2828116      0.1546286
 Standard basis: 6-31G(d) (6D, 7F)
 There are   403 symmetry adapted basis functions of A   symmetry.
 Integral buffers will be    131072 words long.
 Raffenetti 2 integral format.
 Two-electron integral symmetry is turned on.
   403 basis functions,   756 primitive gaussians,   403 cartesian basis functions
    83 alpha electrons       83 beta electrons
       nuclear repulsion energy      2045.6635445048 Hartrees.
 NAtoms=   39 NActive=   39 NUniq=   39 SFac= 1.00D+00 NAtFMM=   50 NAOKFM=F Big=F
 One-electron integrals computed using PRISM.
 NBasis=   403 RedAO= T  NBF=   403
 NBsUse=   403 1.00D-06 NBFU=   403
 Harris functional with IExCor=  402 diagonalized for initial guess.
 ExpMin= 1.61D-01 ExpMax= 5.48D+03 ExpMxC= 8.25D+02 IAcc=1 IRadAn=         1 AccDes= 0.00D+00
 HarFok:  IExCor=  402 AccDes= 0.00D+00 IRadAn=         1 IDoV= 1
 ScaDFX=  1.000000  1.000000  1.000000  1.000000
 FoFCou: FMM=F IPFlag=           0 FMFlag=      100000 FMFlg1=           0
         NFxFlg=           0 DoJE=T BraDBF=F KetDBF=T FulRan=T
         Omega=  0.000000  0.000000  1.000000  0.000000  0.000000 ICntrl=     500 IOpCl=  0
         NMat0=    1 NMatS0=    1 NMatT0=    0 NMatD0=    1 NMtDS0=    0 NMtDT0=    0
         I1Cent=           4 NGrid=           0.
 Petite list used in FoFCou.
 Initial guess orbital symmetries:
       Occupied  (A) (A) (A) (A) (A) (A) (A) (A) (A) (A) (A) (A)
                 (A) (A) (A) (A) (A) (A) (A) (A) (A) (A) (A) (A)
                 (A) (A) (A) (A) (A) (A) (A) (A) (A) (A) (A) (A)
                 (A) (A) (A) (A) (A) (A) (A) (A) (A) (A) (A) (A)
                 (A) (A) (A) (A) (A) (A) (A) (A) (A) (A) (A) (A)
                 (A) (A) (A) (A) (A) (A) (A) (A) (A) (A) (A) (A)
                 (A) (A) (A) (A) (A) (A) (A) (A) (A) (A) (A)
       Virtual   (A) (A) (A) (A) (A) (A) (A) (A) (A) (A) (A) (A)
                 (A) (A) (A) (A) (A) (A) (A) (A) (A) (A) (A) (A)
                 (A) (A) (A) (A) (A) (A) (A) (A) (A) (A) (A) (A)
                 (A) (A) (A) (A) (A) (A) (A) (A) (A) (A) (A) (A)
                 (A) (A) (A) (A) (A) (A) (A) (A) (A) (A) (A) (A)
                 (A) (A) (A) (A) (A) (A) (A) (A) (A) (A) (A) (A)
                 (A) (A) (A) (A) (A) (A) (A) (A) (A) (A) (A) (A)
                 (A) (A) (A) (A) (A) (A) (A) (A) (A) (A) (A) (A)
                 (A) (A) (A) (A) (A) (A) (A) (A) (A) (A) (A) (A)
                 (A) (A) (A) (A) (A) (A) (A) (A) (A) (A) (A) (A)
                 (A) (A) (A) (A) (A) (A) (A) (A) (A) (A) (A) (A)
                 (A) (A) (A) (A) (A) (A) (A) (A) (A) (A) (A) (A)
                 (A) (A) (A) (A) (A) (A) (A) (A) (A) (A) (A) (A)
                 (A) (A) (A) (A) (A) (A) (A) (A) (A) (A) (A) (A)
                 (A) (A) (A) (A) (A) (A) (A) (A) (A) (A) (A) (A)
                 (A) (A) (A) (A) (A) (A) (A) (A) (A) (A) (A) (A)
                 (A) (A) (A) (A) (A) (A) (A) (A) (A) (A) (A) (A)
                 (A) (A) (A) (A) (A) (A) (A) (A) (A) (A) (A) (A)
                 (A) (A) (A) (A) (A) (A) (A) (A) (A) (A) (A) (A)
                 (A) (A) (A) (A) (A) (A) (A) (A) (A) (A) (A) (A)
                 (A) (A) (A) (A) (A) (A) (A) (A) (A) (A) (A) (A)
                 (A) (A) (A) (A) (A) (A) (A) (A) (A) (A) (A) (A)
                 (A) (A) (A) (A) (A) (A) (A) (A) (A) (A) (A) (A)
                 (A) (A) (A) (A) (A) (A) (A) (A) (A) (A) (A) (A)
                 (A) (A) (A) (A) (A) (A) (A) (A) (A) (A) (A) (A)
                 (A) (A) (A) (A) (A) (A) (A) (A) (A) (A) (A) (A)
                 (A) (A) (A) (A) (A) (A) (A) (A)
 The electronic state of the initial guess is 1-A.
 Requested convergence on RMS density matrix=1.00D-08 within  64 cycles.
 Requested convergence on MAX density matrix=1.00D-06.
 Requested convergence on             energy=1.00D-06.
 No special actions if energy rises.
 Integral accuracy reduced to 1.0D-05 until final iterations.
 Initial convergence to 1.0D-05 achieved.  Increase integral accuracy.
 SCF Done:  E(RB3LYP) =  -998.108059497     A.U. after   16 cycles
             Convg  =    0.6990D-08             -V/T =  2.0084
 QCSCF skips out because SCF is already converged.

 **********************************************************************

            Population analysis using the SCF density.

 **********************************************************************

 Orbital symmetries:
       Occupied  (A) (A) (A) (A) (A) (A) (A) (A) (A) (A) (A) (A)
                 (A) (A) (A) (A) (A) (A) (A) (A) (A) (A) (A) (A)
                 (A) (A) (A) (A) (A) (A) (A) (A) (A) (A) (A) (A)
                 (A) (A) (A) (A) (A) (A) (A) (A) (A) (A) (A) (A)
                 (A) (A) (A) (A) (A) (A) (A) (A) (A) (A) (A) (A)
                 (A) (A) (A) (A) (A) (A) (A) (A) (A) (A) (A) (A)
                 (A) (A) (A) (A) (A) (A) (A) (A) (A) (A) (A)
       Virtual   (A) (A) (A) (A) (A) (A) (A) (A) (A) (A) (A) (A)
                 (A) (A) (A) (A) (A) (A) (A) (A) (A) (A) (A) (A)
                 (A) (A) (A) (A) (A) (A) (A) (A) (A) (A) (A) (A)
                 (A) (A) (A) (A) (A) (A) (A) (A) (A) (A) (A) (A)
                 (A) (A) (A) (A) (A) (A) (A) (A) (A) (A) (A) (A)
                 (A) (A) (A) (A) (A) (A) (A) (A) (A) (A) (A) (A)
                 (A) (A) (A) (A) (A) (A) (A) (A) (A) (A) (A) (A)
                 (A) (A) (A) (A) (A) (A) (A) (A) (A) (A) (A) (A)
                 (A) (A) (A) (A) (A) (A) (A) (A) (A) (A) (A) (A)
                 (A) (A) (A) (A) (A) (A) (A) (A) (A) (A) (A) (A)
                 (A) (A) (A) (A) (A) (A) (A) (A) (A) (A) (A) (A)
                 (A) (A) (A) (A) (A) (A) (A) (A) (A) (A) (A) (A)
                 (A) (A) (A) (A) (A) (A) (A) (A) (A) (A) (A) (A)
                 (A) (A) (A) (A) (A) (A) (A) (A) (A) (A) (A) (A)
                 (A) (A) (A) (A) (A) (A) (A) (A) (A) (A) (A) (A)
                 (A) (A) (A) (A) (A) (A) (A) (A) (A) (A) (A) (A)
                 (A) (A) (A) (A) (A) (A) (A) (A) (A) (A) (A) (A)
                 (A) (A) (A) (A) (A) (A) (A) (A) (A) (A) (A) (A)
                 (A) (A) (A) (A) (A) (A) (A) (A) (A) (A) (A) (A)
                 (A) (A) (A) (A) (A) (A) (A) (A) (A) (A) (A) (A)
                 (A) (A) (A) (A) (A) (A) (A) (A) (A) (A) (A) (A)
                 (A) (A) (A) (A) (A) (A) (A) (A) (A) (A) (A) (A)
                 (A) (A) (A) (A) (A) (A) (A) (A) (A) (A) (A) (A)
                 (A) (A) (A) (A) (A) (A) (A) (A) (A) (A) (A) (A)
                 (A) (A) (A) (A) (A) (A) (A) (A) (A) (A) (A) (A)
                 (A) (A) (A) (A) (A) (A) (A) (A) (A) (A) (A) (A)
                 (A) (A) (A) (A) (A) (A) (A) (A)
 The electronic state is 1-A.
 Alpha  occ. eigenvalues --  -19.24759 -10.25477 -10.19101 -10.19002 -10.18823
 Alpha  occ. eigenvalues --  -10.18795 -10.18742 -10.18533 -10.18503 -10.18325
 Alpha  occ. eigenvalues --  -10.18288 -10.18216 -10.18098 -10.18063 -10.17930
 Alpha  occ. eigenvalues --  -10.17871 -10.17869 -10.17697 -10.17687 -10.17541
 Alpha  occ. eigenvalues --  -10.17480 -10.17259 -10.17179 -10.17027 -10.15558
 Alpha  occ. eigenvalues --   -1.15482  -0.89012  -0.86227  -0.85081  -0.82063
 Alpha  occ. eigenvalues --   -0.80734  -0.79166  -0.76976  -0.75150  -0.73515
 Alpha  occ. eigenvalues --   -0.72606  -0.70591  -0.70402  -0.66284  -0.63133
 Alpha  occ. eigenvalues --   -0.62141  -0.61670  -0.60928  -0.60470  -0.56635
 Alpha  occ. eigenvalues --   -0.54750  -0.53842  -0.53346  -0.52031  -0.51945
 Alpha  occ. eigenvalues --   -0.49783  -0.48119  -0.45878  -0.44883  -0.44524
 Alpha  occ. eigenvalues --   -0.44261  -0.43966  -0.42404  -0.41256  -0.40739
 Alpha  occ. eigenvalues --   -0.40398  -0.40163  -0.39451  -0.38734  -0.38511
 Alpha  occ. eigenvalues --   -0.36549  -0.36199  -0.36151  -0.35127  -0.34638
 Alpha  occ. eigenvalues --   -0.34323  -0.34271  -0.31217  -0.30278  -0.30057
 Alpha  occ. eigenvalues --   -0.29997  -0.28488  -0.25002  -0.24039  -0.23377
 Alpha  occ. eigenvalues --   -0.21451  -0.18664  -0.14703
 Alpha virt. eigenvalues --   -0.03886  -0.02675  -0.00055   0.00417   0.01888
 Alpha virt. eigenvalues --    0.03013   0.05241   0.06699   0.08853   0.09684
 Alpha virt. eigenvalues --    0.11075   0.11447   0.11787   0.12044   0.13221
 Alpha virt. eigenvalues --    0.13509   0.15411   0.15624   0.17338   0.17403
 Alpha virt. eigenvalues --    0.19271   0.19417   0.19715   0.19905   0.21761
 Alpha virt. eigenvalues --    0.21957   0.25511   0.26229   0.26911   0.27984
 Alpha virt. eigenvalues --    0.28484   0.28658   0.29293   0.29551   0.29981
 Alpha virt. eigenvalues --    0.30309   0.31567   0.34400   0.34777   0.35690
 Alpha virt. eigenvalues --    0.36963   0.37169   0.42754   0.44662   0.46246
 Alpha virt. eigenvalues --    0.46532   0.47637   0.47829   0.48198   0.50627
 Alpha virt. eigenvalues --    0.51144   0.51419   0.52874   0.53187   0.53230
 Alpha virt. eigenvalues --    0.54219   0.55133   0.55954   0.56277   0.56681
 Alpha virt. eigenvalues --    0.56954   0.57371   0.57418   0.57830   0.58297
 Alpha virt. eigenvalues --    0.58779   0.59438   0.59823   0.60100   0.60180
 Alpha virt. eigenvalues --    0.60456   0.60763   0.60897   0.61190   0.61544
 Alpha virt. eigenvalues --    0.61963   0.62885   0.63254   0.63638   0.63682
 Alpha virt. eigenvalues --    0.64246   0.64308   0.65150   0.65262   0.69141
 Alpha virt. eigenvalues --    0.69883   0.70342   0.70796   0.71605   0.71735
 Alpha virt. eigenvalues --    0.72840   0.74544   0.77021   0.79068   0.79697
 Alpha virt. eigenvalues --    0.80518   0.81808   0.82377   0.82545   0.83026
 Alpha virt. eigenvalues --    0.83258   0.83732   0.84108   0.85212   0.86112
 Alpha virt. eigenvalues --    0.86669   0.86890   0.86964   0.87340   0.87579
 Alpha virt. eigenvalues --    0.88492   0.89772   0.90588   0.93313   0.94710
 Alpha virt. eigenvalues --    0.95381   0.96137   0.96473   0.96687   0.97641
 Alpha virt. eigenvalues --    0.99023   1.00302   1.01488   1.02064   1.02308
 Alpha virt. eigenvalues --    1.02619   1.03389   1.03693   1.05535   1.05990
 Alpha virt. eigenvalues --    1.06641   1.08814   1.11688   1.14144   1.16359
 Alpha virt. eigenvalues --    1.16675   1.17073   1.17546   1.17801   1.19185
 Alpha virt. eigenvalues --    1.20790   1.23514   1.24015   1.24319   1.26500
 Alpha virt. eigenvalues --    1.26986   1.27324   1.27990   1.28451   1.28562
 Alpha virt. eigenvalues --    1.30132   1.31619   1.32142   1.33387   1.35954
 Alpha virt. eigenvalues --    1.39690   1.41624   1.42211   1.42321   1.43637
 Alpha virt. eigenvalues --    1.44581   1.45327   1.47398   1.47658   1.48556
 Alpha virt. eigenvalues --    1.48918   1.49211   1.49801   1.50179   1.50509
 Alpha virt. eigenvalues --    1.52975   1.53515   1.53904   1.55607   1.60102
 Alpha virt. eigenvalues --    1.60977   1.63802   1.64667   1.65732   1.66959
 Alpha virt. eigenvalues --    1.69440   1.70713   1.73308   1.73889   1.75844
 Alpha virt. eigenvalues --    1.77293   1.78817   1.79172   1.79416   1.79895
 Alpha virt. eigenvalues --    1.81485   1.82124   1.83912   1.84528   1.85866
 Alpha virt. eigenvalues --    1.87378   1.88506   1.90210   1.91814   1.92445
 Alpha virt. eigenvalues --    1.93016   1.93741   1.95454   1.95775   1.95941
 Alpha virt. eigenvalues --    1.96462   1.96967   1.97462   1.97852   1.99545
 Alpha virt. eigenvalues --    2.01142   2.01681   2.02545   2.03328   2.05065
 Alpha virt. eigenvalues --    2.05867   2.07265   2.08234   2.08573   2.10097
 Alpha virt. eigenvalues --    2.11352   2.15497   2.16232   2.16908   2.19653
 Alpha virt. eigenvalues --    2.23746   2.24484   2.25315   2.25963   2.26693
 Alpha virt. eigenvalues --    2.27189   2.27609   2.27662   2.28149   2.28825
 Alpha virt. eigenvalues --    2.31632   2.32296   2.32886   2.33661   2.33880
 Alpha virt. eigenvalues --    2.35978   2.36305   2.36646   2.39355   2.40041
 Alpha virt. eigenvalues --    2.41021   2.42165   2.43233   2.44742   2.45309
 Alpha virt. eigenvalues --    2.46612   2.47443   2.51012   2.52978   2.58275
 Alpha virt. eigenvalues --    2.58763   2.60118   2.62240   2.63912   2.64589
 Alpha virt. eigenvalues --    2.64675   2.69407   2.72265   2.72832   2.73136
 Alpha virt. eigenvalues --    2.73479   2.74610   2.75009   2.78653   2.79638
 Alpha virt. eigenvalues --    2.80320   2.83337   2.84821   2.84981   2.85130
 Alpha virt. eigenvalues --    2.86214   2.87332   2.89972   2.92671   2.94245
 Alpha virt. eigenvalues --    2.95931   3.00880   3.01919   3.02406   3.04381
 Alpha virt. eigenvalues --    3.06610   3.09669   3.12229   3.25138   3.32449
 Alpha virt. eigenvalues --    3.32972   3.42372   3.42525   3.58357   3.66039
 Alpha virt. eigenvalues --    3.79801   4.09315   4.10177   4.11127   4.12074
 Alpha virt. eigenvalues --    4.12626   4.13536   4.17158   4.17691   4.18004
 Alpha virt. eigenvalues --    4.18620   4.20900   4.27544   4.30379   4.35307
 Alpha virt. eigenvalues --    4.36376   4.37444   4.43459   4.48138   4.51892
 Alpha virt. eigenvalues --    4.56218   4.58641   4.77128   4.77205   5.03698
          Condensed to atoms (all electrons):
              1          2          3          4          5          6
     1  C    5.343087   0.241047   0.229818  -0.015918  -0.014348  -0.088838
     2  C    0.241047   5.409175  -0.009050   0.223218  -0.091506  -0.017588
     3  C    0.229818  -0.009050   5.468229  -0.091112   0.240050  -0.019666
     4  C   -0.015918   0.223218  -0.091112   5.408953  -0.016949   0.229503
     5  C   -0.014348  -0.091506   0.240050  -0.016949   5.378316   0.228891
     6  C   -0.088838  -0.017588  -0.019666   0.229503   0.228891   5.412406
     7  C    0.433486  -0.063237  -0.061155   0.016121   0.015810  -0.001025
     8  C   -0.054082   0.431778   0.014380  -0.056433  -0.000894   0.014123
     9  C   -0.051455   0.014323   0.409902  -0.000820  -0.051450   0.014271
    10  C    0.013939  -0.052933  -0.000697   0.435509   0.014008  -0.053717
    11  C    0.014212  -0.000708  -0.056679   0.014066   0.434280  -0.051292
    12  C   -0.000849   0.014297   0.014160  -0.053737  -0.053153   0.433257
    13  C    0.025837   0.019601  -0.086885  -0.000151  -0.002356   0.000003
    14  C   -0.083753   0.010585  -0.002083   0.018523  -0.000009  -0.000131
    15  C    0.015917  -0.082673   0.017249  -0.002204  -0.000092  -0.000006
    16  C   -0.000126   0.018416  -0.000003   0.011122  -0.002257  -0.084138
    17  C   -0.000132  -0.000005   0.018398  -0.002250   0.012302  -0.084543
    18  C    0.018007  -0.000143   0.014588   0.000000  -0.083513  -0.002195
    19  C   -0.000001  -0.002287  -0.000140  -0.083966   0.018304   0.011775
    20  C   -0.002289   0.000001  -0.084593  -0.000137   0.011615   0.018495
    21  C   -0.086943  -0.002345  -0.004551  -0.000009   0.019529  -0.000135
    22  C   -0.000002  -0.000131  -0.002113   0.018251  -0.083236   0.009231
    23  C    0.018133   0.011435  -0.000149  -0.083733   0.000000  -0.002229
    24  C   -0.002232  -0.084615   0.000001   0.011513  -0.000129   0.018400
    25  H    0.002410  -0.000123   0.000745   0.000002   0.000027  -0.000001
    26  H    0.001495   0.003421   0.000030  -0.000246  -0.000001   0.000002
    27  H    0.002459   0.001591  -0.000265   0.000031   0.000002  -0.000001
    28  H   -0.000001   0.000029   0.000003   0.001393  -0.000239   0.003405
    29  H    0.000003  -0.000001  -0.000247   0.000030   0.003298   0.001443
    30  H    0.001018   0.000020   0.004572   0.000000  -0.000203   0.000003
    31  H    0.000030  -0.000001   0.001441   0.000003   0.003344  -0.000244
    32  H    0.000002  -0.000242  -0.000001   0.003318   0.000029   0.001414
    33  H   -0.000251   0.003397   0.000002   0.001417  -0.000001   0.000029
    34  H   -0.000250   0.000002   0.003667  -0.000001   0.001410   0.000030
    35  H   -0.000001   0.000002   0.000029  -0.000249   0.001430   0.003442
    36  H    0.000030   0.001407  -0.000001   0.003332   0.000003  -0.000241
    37  O   -0.000288  -0.002042   0.014956  -0.000006   0.000123  -0.000003
    38  H   -0.002705  -0.000008  -0.002193   0.000001  -0.000012   0.000002
    39  H    0.001434   0.000196  -0.005658  -0.000011  -0.000146   0.000010
              7          8          9         10         11         12
     1  C    0.433486  -0.054082  -0.051455   0.013939   0.014212  -0.000849
     2  C   -0.063237   0.431778   0.014323  -0.052933  -0.000708   0.014297
     3  C   -0.061155   0.014380   0.409902  -0.000697  -0.056679   0.014160
     4  C    0.016121  -0.056433  -0.000820   0.435509   0.014066  -0.053737
     5  C    0.015810  -0.000894  -0.051450   0.014008   0.434280  -0.053153
     6  C   -0.001025   0.014123   0.014271  -0.053717  -0.051292   0.433257
     7  C    5.095308  -0.046769  -0.053139  -0.000130  -0.000114  -0.000005
     8  C   -0.046769   4.802204  -0.000101  -0.043876  -0.000001  -0.000108
     9  C   -0.053139  -0.000101   4.774023  -0.000002  -0.044077  -0.000112
    10  C   -0.000130  -0.043876  -0.000002   4.814482  -0.000124  -0.044149
    11  C   -0.000114  -0.000001  -0.044077  -0.000124   4.832280  -0.044084
    12  C   -0.000005  -0.000108  -0.000112  -0.044149  -0.044084   4.800667
    13  C    0.336387  -0.000466   0.034017  -0.000002   0.000081   0.000000
    14  C    0.004666   0.418529   0.000074  -0.000456   0.000000  -0.000001
    15  C    0.435944   0.014115  -0.000583   0.000073  -0.000001   0.000000
    16  C   -0.000001  -0.000468   0.000000   0.411245   0.000073   0.015125
    17  C   -0.000001   0.000000  -0.000482   0.000074   0.413588   0.015632
    18  C   -0.000414  -0.000001   0.413935   0.000000   0.011257   0.000069
    19  C    0.000000   0.000073  -0.000001   0.013775  -0.000421   0.409213
    20  C    0.000066   0.000000   0.017256  -0.000001   0.403721  -0.000452
    21  C    0.028878   0.000069   0.419558   0.000000  -0.000384  -0.000001
    22  C    0.000000  -0.000001   0.000073  -0.000416   0.010990   0.415050
    23  C   -0.000324   0.409614  -0.000001   0.013535   0.000000   0.000073
    24  C    0.000065   0.015430   0.000000   0.408152  -0.000001  -0.000478
    25  H   -0.048513  -0.000001   0.001144   0.000000   0.000000   0.000000
    26  H    0.002081  -0.034227   0.000000   0.000016   0.000000   0.000000
    27  H   -0.047004   0.001512   0.000012   0.000000   0.000000   0.000000
    28  H    0.000000   0.000000   0.000000   0.001804   0.000015  -0.035562
    29  H    0.000000   0.000000   0.000015   0.000000  -0.036413   0.001787
    30  H    0.002952   0.000000  -0.028992   0.000000   0.000008   0.000000
    31  H   -0.000001   0.000000   0.001735   0.000000  -0.035946   0.000015
    32  H    0.000000   0.000015   0.000000  -0.036480   0.000000   0.001743
    33  H    0.000018  -0.036579   0.000000   0.001777   0.000000   0.000000
    34  H    0.000015   0.000000  -0.036602   0.000000   0.001812   0.000000
    35  H    0.000000   0.000000   0.000000   0.000015   0.001808  -0.036602
    36  H    0.000000   0.001771   0.000000  -0.035893   0.000000   0.000014
    37  O   -0.189499   0.000255  -0.003794   0.000000  -0.000009   0.000000
    38  H    0.023675   0.000062   0.000695   0.000000   0.000002   0.000000
    39  H    0.015002  -0.000007   0.000244   0.000000   0.000039   0.000000
             13         14         15         16         17         18
     1  C    0.025837  -0.083753   0.015917  -0.000126  -0.000132   0.018007
     2  C    0.019601   0.010585  -0.082673   0.018416  -0.000005  -0.000143
     3  C   -0.086885  -0.002083   0.017249  -0.000003   0.018398   0.014588
     4  C   -0.000151   0.018523  -0.002204   0.011122  -0.002250   0.000000
     5  C   -0.002356  -0.000009  -0.000092  -0.002257   0.012302  -0.083513
     6  C    0.000003  -0.000131  -0.000006  -0.084138  -0.084543  -0.002195
     7  C    0.336387   0.004666   0.435944  -0.000001  -0.000001  -0.000414
     8  C   -0.000466   0.418529   0.014115  -0.000468   0.000000  -0.000001
     9  C    0.034017   0.000074  -0.000583   0.000000  -0.000482   0.413935
    10  C   -0.000002  -0.000456   0.000073   0.411245   0.000074   0.000000
    11  C    0.000081   0.000000  -0.000001   0.000073   0.413588   0.011257
    12  C    0.000000  -0.000001   0.000000   0.015125   0.015632   0.000069
    13  C    5.320468   0.009562  -0.113740   0.000000   0.000001   0.009701
    14  C    0.009562   5.203314   0.431641  -0.000014   0.000000   0.000001
    15  C   -0.113740   0.431641   5.181977   0.000001   0.000000  -0.000010
    16  C    0.000000  -0.000014   0.000001   5.192579  -0.000431   0.000000
    17  C    0.000001   0.000000   0.000000  -0.000431   5.187197   0.009060
    18  C    0.009701   0.000001  -0.000010   0.000000   0.009060   5.209225
    19  C    0.000000   0.000001   0.000000   0.431554   0.009107   0.000001
    20  C   -0.000509   0.000000   0.000001   0.000001  -0.103183   0.436061
    21  C    0.373865  -0.000412   0.008871   0.000000  -0.000014  -0.113758
    22  C    0.000000   0.000000   0.000000   0.009093   0.432309  -0.000411
    23  C   -0.000015  -0.104719   0.009396   0.009089   0.000000   0.000000
    24  C    0.000001   0.009115  -0.000442  -0.102958   0.000001   0.000000
    25  H    0.392908   0.000318  -0.006414   0.000000   0.000000  -0.000169
    26  H   -0.000245   0.348534  -0.039724   0.000000   0.000000   0.000000
    27  H   -0.005039  -0.031509   0.347352   0.000000   0.000000   0.000000
    28  H    0.000000   0.000000   0.000000  -0.039163   0.000178   0.000000
    29  H    0.000000   0.000000   0.000000   0.000003   0.348283   0.000175
    30  H   -0.052187   0.000002  -0.000210   0.000000   0.000000  -0.009623
    31  H    0.000003   0.000000   0.000000   0.000000  -0.007237  -0.038790
    32  H    0.000000   0.000000   0.000000   0.349399   0.000003   0.000000
    33  H    0.000000  -0.007292   0.000189  -0.000209   0.000000   0.000000
    34  H    0.000253   0.000000   0.000000   0.000000  -0.000211   0.349287
    35  H    0.000000   0.000000   0.000000   0.000187  -0.038739   0.000003
    36  H    0.000000  -0.000206   0.000003  -0.007120   0.000000   0.000000
    37  O   -0.252938  -0.000204  -0.001715   0.000000   0.000000   0.000072
    38  H    0.045080  -0.001171   0.009616   0.000000   0.000000  -0.000019
    39  H    0.036017  -0.000043  -0.000388   0.000000   0.000000  -0.001129
             19         20         21         22         23         24
     1  C   -0.000001  -0.002289  -0.086943  -0.000002   0.018133  -0.002232
     2  C   -0.002287   0.000001  -0.002345  -0.000131   0.011435  -0.084615
     3  C   -0.000140  -0.084593  -0.004551  -0.002113  -0.000149   0.000001
     4  C   -0.083966  -0.000137  -0.000009   0.018251  -0.083733   0.011513
     5  C    0.018304   0.011615   0.019529  -0.083236   0.000000  -0.000129
     6  C    0.011775   0.018495  -0.000135   0.009231  -0.002229   0.018400
     7  C    0.000000   0.000066   0.028878   0.000000  -0.000324   0.000065
     8  C    0.000073   0.000000   0.000069  -0.000001   0.409614   0.015430
     9  C   -0.000001   0.017256   0.419558   0.000073  -0.000001   0.000000
    10  C    0.013775  -0.000001   0.000000  -0.000416   0.013535   0.408152
    11  C   -0.000421   0.403721  -0.000384   0.010990   0.000000  -0.000001
    12  C    0.409213  -0.000452  -0.000001   0.415050   0.000073  -0.000478
    13  C    0.000000  -0.000509   0.373865   0.000000  -0.000015   0.000001
    14  C    0.000001   0.000000  -0.000412   0.000000  -0.104719   0.009115
    15  C    0.000000   0.000001   0.008871   0.000000   0.009396  -0.000442
    16  C    0.431554   0.000001   0.000000   0.009093   0.009089  -0.102958
    17  C    0.009107  -0.103183  -0.000014   0.432309   0.000000   0.000001
    18  C    0.000001   0.436061  -0.113758  -0.000411   0.000000   0.000000
    19  C    5.196868  -0.000013   0.000000  -0.104008  -0.000424   0.009070
    20  C   -0.000013   5.193550   0.009785   0.009119   0.000000   0.000000
    21  C    0.000000   0.009785   5.539436   0.000001   0.000001   0.000000
    22  C   -0.104008   0.009119   0.000001   5.204077   0.000001  -0.000013
    23  C   -0.000424   0.000000   0.000001   0.000001   5.199661   0.433392
    24  C    0.009070   0.000000   0.000000  -0.000013   0.433392   5.191140
    25  H    0.000000   0.000002  -0.026135   0.000000   0.000000   0.000000
    26  H    0.000000   0.000000   0.000003   0.000000  -0.007314   0.000176
    27  H    0.000000   0.000000   0.000180   0.000000  -0.000217   0.000003
    28  H    0.349613   0.000000   0.000000  -0.007203   0.000003  -0.000208
    29  H   -0.000210  -0.007210   0.000000  -0.038608   0.000000   0.000000
    30  H    0.000000   0.000220   0.361657   0.000000   0.000000   0.000000
    31  H    0.000000   0.348127  -0.000213   0.000173   0.000000   0.000000
    32  H   -0.038274   0.000000   0.000000  -0.000208   0.000183  -0.007125
    33  H    0.000003   0.000000   0.000000   0.000000   0.349672  -0.038438
    34  H    0.000000  -0.040138  -0.008537   0.000003   0.000000   0.000000
    35  H   -0.007318  -0.000211   0.000000   0.349528   0.000000   0.000000
    36  H    0.000179   0.000000   0.000000   0.000000  -0.038537   0.349338
    37  O    0.000000   0.000014  -0.276235   0.000000   0.000001   0.000000
    38  H    0.000000  -0.000003   0.034335   0.000000   0.000001   0.000000
    39  H    0.000000  -0.000013   0.056879   0.000000   0.000000   0.000000
             25         26         27         28         29         30
     1  C    0.002410   0.001495   0.002459  -0.000001   0.000003   0.001018
     2  C   -0.000123   0.003421   0.001591   0.000029  -0.000001   0.000020
     3  C    0.000745   0.000030  -0.000265   0.000003  -0.000247   0.004572
     4  C    0.000002  -0.000246   0.000031   0.001393   0.000030   0.000000
     5  C    0.000027  -0.000001   0.000002  -0.000239   0.003298  -0.000203
     6  C   -0.000001   0.000002  -0.000001   0.003405   0.001443   0.000003
     7  C   -0.048513   0.002081  -0.047004   0.000000   0.000000   0.002952
     8  C   -0.000001  -0.034227   0.001512   0.000000   0.000000   0.000000
     9  C    0.001144   0.000000   0.000012   0.000000   0.000015  -0.028992
    10  C    0.000000   0.000016   0.000000   0.001804   0.000000   0.000000
    11  C    0.000000   0.000000   0.000000   0.000015  -0.036413   0.000008
    12  C    0.000000   0.000000   0.000000  -0.035562   0.001787   0.000000
    13  C    0.392908  -0.000245  -0.005039   0.000000   0.000000  -0.052187
    14  C    0.000318   0.348534  -0.031509   0.000000   0.000000   0.000002
    15  C   -0.006414  -0.039724   0.347352   0.000000   0.000000  -0.000210
    16  C    0.000000   0.000000   0.000000  -0.039163   0.000003   0.000000
    17  C    0.000000   0.000000   0.000000   0.000178   0.348283   0.000000
    18  C   -0.000169   0.000000   0.000000   0.000000   0.000175  -0.009623
    19  C    0.000000   0.000000   0.000000   0.349613  -0.000210   0.000000
    20  C    0.000002   0.000000   0.000000   0.000000  -0.007210   0.000220
    21  C   -0.026135   0.000003   0.000180   0.000000   0.000000   0.361657
    22  C    0.000000   0.000000   0.000000  -0.007203  -0.038608   0.000000
    23  C    0.000000  -0.007314  -0.000217   0.000003   0.000000   0.000000
    24  C    0.000000   0.000176   0.000003  -0.000208   0.000000   0.000000
    25  H    0.583859  -0.000016   0.006154   0.000000   0.000000  -0.005566
    26  H   -0.000016   0.604349  -0.004680   0.000000   0.000000   0.000000
    27  H    0.006154  -0.004680   0.613565   0.000000   0.000000  -0.000008
    28  H    0.000000   0.000000   0.000000   0.600734  -0.000012   0.000000
    29  H    0.000000   0.000000   0.000000  -0.000012   0.605512   0.000000
    30  H   -0.005566   0.000000  -0.000008   0.000000   0.000000   0.605760
    31  H    0.000000   0.000000   0.000000   0.000000   0.006787  -0.000012
    32  H    0.000000   0.000000   0.000000  -0.004620   0.000000   0.000000
    33  H    0.000000   0.006735  -0.000012   0.000000   0.000000   0.000000
    34  H   -0.000011   0.000000   0.000000   0.000000  -0.000011   0.006833
    35  H    0.000000   0.000000   0.000000   0.006742  -0.004726   0.000000
    36  H    0.000000  -0.000011   0.000000  -0.000011   0.000000   0.000000
    37  O   -0.069633   0.000001   0.000195   0.000000   0.000000   0.003468
    38  H    0.008040  -0.000017   0.001395   0.000000   0.000000  -0.000822
    39  H    0.006999  -0.000001  -0.000056   0.000000   0.000000   0.000413
             31         32         33         34         35         36
     1  C    0.000030   0.000002  -0.000251  -0.000250  -0.000001   0.000030
     2  C   -0.000001  -0.000242   0.003397   0.000002   0.000002   0.001407
     3  C    0.001441  -0.000001   0.000002   0.003667   0.000029  -0.000001
     4  C    0.000003   0.003318   0.001417  -0.000001  -0.000249   0.003332
     5  C    0.003344   0.000029  -0.000001   0.001410   0.001430   0.000003
     6  C   -0.000244   0.001414   0.000029   0.000030   0.003442  -0.000241
     7  C   -0.000001   0.000000   0.000018   0.000015   0.000000   0.000000
     8  C    0.000000   0.000015  -0.036579   0.000000   0.000000   0.001771
     9  C    0.001735   0.000000   0.000000  -0.036602   0.000000   0.000000
    10  C    0.000000  -0.036480   0.001777   0.000000   0.000015  -0.035893
    11  C   -0.035946   0.000000   0.000000   0.001812   0.001808   0.000000
    12  C    0.000015   0.001743   0.000000   0.000000  -0.036602   0.000014
    13  C    0.000003   0.000000   0.000000   0.000253   0.000000   0.000000
    14  C    0.000000   0.000000  -0.007292   0.000000   0.000000  -0.000206
    15  C    0.000000   0.000000   0.000189   0.000000   0.000000   0.000003
    16  C    0.000000   0.349399  -0.000209   0.000000   0.000187  -0.007120
    17  C   -0.007237   0.000003   0.000000  -0.000211  -0.038739   0.000000
    18  C   -0.038790   0.000000   0.000000   0.349287   0.000003   0.000000
    19  C    0.000000  -0.038274   0.000003   0.000000  -0.007318   0.000179
    20  C    0.348127   0.000000   0.000000  -0.040138  -0.000211   0.000000
    21  C   -0.000213   0.000000   0.000000  -0.008537   0.000000   0.000000
    22  C    0.000173  -0.000208   0.000000   0.000003   0.349528   0.000000
    23  C    0.000000   0.000183   0.349672   0.000000   0.000000  -0.038537
    24  C    0.000000  -0.007125  -0.038438   0.000000   0.000000   0.349338
    25  H    0.000000   0.000000   0.000000  -0.000011   0.000000   0.000000
    26  H    0.000000   0.000000   0.006735   0.000000   0.000000  -0.000011
    27  H    0.000000   0.000000  -0.000012   0.000000   0.000000   0.000000
    28  H    0.000000  -0.004620   0.000000   0.000000   0.006742  -0.000011
    29  H    0.006787   0.000000   0.000000  -0.000011  -0.004726   0.000000
    30  H   -0.000012   0.000000   0.000000   0.006833   0.000000   0.000000
    31  H    0.604941   0.000000   0.000000  -0.004696  -0.000011   0.000000
    32  H    0.000000   0.601404  -0.000011   0.000000  -0.000011   0.006694
    33  H    0.000000  -0.000011   0.603167   0.000000   0.000000  -0.004639
    34  H   -0.004696   0.000000   0.000000   0.612742   0.000000   0.000000
    35  H   -0.000011  -0.000011   0.000000   0.000000   0.607003   0.000000
    36  H    0.000000   0.006694  -0.004639   0.000000   0.000000   0.600059
    37  O    0.000000   0.000000   0.000000  -0.000014   0.000000   0.000000
    38  H    0.000000   0.000000   0.000000   0.000000   0.000000   0.000000
    39  H    0.000000   0.000000   0.000000   0.000006   0.000000   0.000000
             37         38         39
     1  C   -0.000288  -0.002705   0.001434
     2  C   -0.002042  -0.000008   0.000196
     3  C    0.014956  -0.002193  -0.005658
     4  C   -0.000006   0.000001  -0.000011
     5  C    0.000123  -0.000012  -0.000146
     6  C   -0.000003   0.000002   0.000010
     7  C   -0.189499   0.023675   0.015002
     8  C    0.000255   0.000062  -0.000007
     9  C   -0.003794   0.000695   0.000244
    10  C    0.000000   0.000000   0.000000
    11  C   -0.000009   0.000002   0.000039
    12  C    0.000000   0.000000   0.000000
    13  C   -0.252938   0.045080   0.036017
    14  C   -0.000204  -0.001171  -0.000043
    15  C   -0.001715   0.009616  -0.000388
    16  C    0.000000   0.000000   0.000000
    17  C    0.000000   0.000000   0.000000
    18  C    0.000072  -0.000019  -0.001129
    19  C    0.000000   0.000000   0.000000
    20  C    0.000014  -0.000003  -0.000013
    21  C   -0.276235   0.034335   0.056879
    22  C    0.000000   0.000000   0.000000
    23  C    0.000001   0.000001   0.000000
    24  C    0.000000   0.000000   0.000000
    25  H   -0.069633   0.008040   0.006999
    26  H    0.000001  -0.000017  -0.000001
    27  H    0.000195   0.001395  -0.000056
    28  H    0.000000   0.000000   0.000000
    29  H    0.000000   0.000000   0.000000
    30  H    0.003468  -0.000822   0.000413
    31  H    0.000000   0.000000   0.000000
    32  H    0.000000   0.000000   0.000000
    33  H    0.000000   0.000000   0.000000
    34  H   -0.000014   0.000000   0.000006
    35  H    0.000000   0.000000   0.000000
    36  H    0.000000   0.000000   0.000000
    37  O    9.184909   0.026426   0.089694
    38  H    0.026426   0.480481   0.035184
    39  H    0.089694   0.035184   0.365879
 Mulliken atomic charges:
              1
     1  C    0.042099
     2  C    0.005696
     3  C   -0.024979
     4  C    0.011628
     5  C    0.017723
     6  C    0.005855
     7  C    0.100856
     8  C    0.150085
     9  C    0.170335
    10  C    0.140473
    11  C    0.132021
    12  C    0.148192
    13  C   -0.089250
    14  C   -0.222861
    15  C   -0.224142
    16  C   -0.211001
    17  C   -0.208905
    18  C   -0.221264
    19  C   -0.212472
    20  C   -0.209280
    21  C   -0.333373
    22  C   -0.221547
    23  C   -0.216527
    24  C   -0.209157
    25  H    0.153974
    26  H    0.119639
    27  H    0.114337
    28  H    0.123100
    29  H    0.120103
    30  H    0.110698
    31  H    0.120554
    32  H    0.122769
    33  H    0.121026
    34  H    0.114411
    35  H    0.117681
    36  H    0.123830
    37  O   -0.523735
    38  H    0.341953
    39  H    0.399454
 Sum of Mulliken atomic charges =   0.00000
 Mulliken charges with hydrogens summed into heavy atoms:
              1
     1  C    0.042099
     2  C    0.005696
     3  C   -0.024979
     4  C    0.011628
     5  C    0.017723
     6  C    0.005855
     7  C    0.100856
     8  C    0.150085
     9  C    0.170335
    10  C    0.140473
[...]
 2788,0.00001633,0.00007060,0.00019873,-0.00006203,0.00137408,0.0006983
 7,0.00022546,-0.00008027,-0.00090684,0.00004442,0.00131098,-0.00488496
 ,0.00067411,0.00002593,0.00007804,-0.00000094,0.00010116,0.00001521,0.
 00001874,0.00022071,-0.00014510,0.00005951,0.00013041,0.00017997,0.000
 01216,-0.00117906,-0.00497945,0.00049389,0.02708133,0.00449232,0.00441
 370,-0.00000609,-0.00011990,0.00000714,0.00002683,-0.00003318,0.000001
 75,0.00001407,-0.00001315,0.00000386,-0.00036478,0.00003963,-0.0000693
 9,-0.02978070,0.00341776,-0.00500417,-0.00027202,-0.00039584,-0.000062
 59,0.00155589,0.00168069,0.00002927,-0.00113852,0.00080682,-0.00020538
 ,-0.00007717,0.00009948,-0.00001699,-0.00831400,-0.06016520,-0.0000935
 1,0.00006892,0.00002114,0.00000948,-0.00017214,0.00003287,-0.00002994,
 0.00000184,0.00000858,-0.00000102,0.00001836,0.00000340,0.00000311,-0.
 00000084,0.00000277,0.00000024,-0.00087536,-0.00034294,-0.00011599,0.0
 0033889,0.00098259,-0.00023545,0.00000139,0.00000008,0.00000032,0.0000
 1475,-0.00003885,0.00001136,-0.00000123,-0.00001077,0.00000729,-0.0000
 0166,0.00000044,-0.00000019,-0.00015625,-0.00000836,-0.00002709,0.0101
 4008,0.05979200,-0.00004000,0.00001996,0.00031033,0.00003544,0.0000613
 9,-0.00027728,0.00020068,-0.00007325,-0.00121118,-0.00028361,-0.000127
 60,0.00059487,0.00004832,0.00009051,0.00023079,-0.00062271,0.00094943,
 0.00390173,-0.00000278,-0.00000054,-0.00002527,-0.00003223,-0.00001142
 ,0.00004778,-0.00005634,0.00001858,0.00029112,0.00003239,-0.00002152,-
 0.00000137,-0.00110747,0.00022781,0.00835709,-0.00400670,-0.00046127,0
 .00202101,-0.00000635,0.00000992,0.00003991,0.00001579,0.00000657,-0.0
 0008329,-0.00000172,-0.00000574,0.00001662,0.00004552,0.00006192,-0.00
 012545,-0.00077774,0.00022419,0.00234549,0.00012455,-0.00007115,-0.000
 71178,0.00049161,-0.00054105,-0.00272168,-0.00012920,0.00006301,0.0004
 6996,0.00000200,-0.00000419,0.00001881,-0.04833950,-0.00019645,-0.0428
 9280,0.00000569,0.00000685,-0.00001788,0.00000758,0.00000353,0.0000090
 3,0.00000236,-0.00000164,-0.00001843,-0.00000436,0.00000206,0.00000322
 ,-0.00000304,0.00000101,0.00000931,0.00009609,0.00018093,0.00025295,0.
 00090959,-0.00032913,-0.00457535,-0.00000128,-0.00000189,0.00000193,-0
 .00002055,0.00000145,0.00013285,-0.00002415,0.00001723,0.00013134,-0.0
 0000126,0.00000206,0.00000189,-0.00000199,-0.00000169,-0.00002939,0.05
 345160,-0.00010733,0.03348365,0.00014549,-0.00001374,0.00023423,-0.000
 54890,0.00045381,-0.00015242,-0.00007753,-0.00008634,-0.00006167,-0.00
 181749,0.00261977,-0.00111132,-0.00019886,0.00012897,0.00000690,0.0006
 7023,0.00069894,-0.00002969,-0.00001876,0.00024815,-0.00006653,-0.0048
 7457,0.00211266,-0.00234357,0.00007489,-0.00002970,0.00001815,0.010778
 45,0.01494696,0.00058287,-0.00000230,0.00004385,-0.00001126,0.00020838
 ,0.00014337,0.00002876,0.00004487,-0.00009506,0.00000917,0.00025491,-0
 .00159060,0.00004119,-0.00058896,-0.00001197,0.00002420,0.00121013,0.0
 0122843,0.00061132,0.00007320,0.00005221,0.00001257,-0.00001926,0.0000
 3031,-0.00000748,0.00005701,-0.00038168,0.00005022,0.00000942,0.000033
 07,0.00001414,-0.00008893,0.00004150,-0.00002441,-0.00003101,-0.000158
 01,0.00000155,-0.01074408,-0.03007889,-0.00067328,-0.12062098,-0.11454
 316,-0.00846585,0.00000095,-0.00000069,0.00000008,-0.00003897,0.000043
 38,-0.00003122,-0.00006668,-0.00014325,0.00000157,0.00001580,-0.000014
 13,-0.00001943,0.00000315,-0.00000619,0.00000048,0.00000360,-0.0000129
 0,0.00000465,0.00001121,0.00000441,0.00000088,-0.00004448,-0.00052267,
 -0.00001831,0.00085988,0.00033109,0.00091587,-0.00000207,-0.00000729,-
 0.00000166,0.00000029,0.00001879,-0.00000434,0.12537966,-0.00008368,0.
 00002701,-0.00007936,0.00073238,0.00017220,0.00012486,0.00006425,0.000
 06464,0.00002366,0.00427265,-0.00226726,0.00103302,0.00040019,-0.00027
 548,0.00006643,-0.00142559,-0.00066700,-0.00017098,0.00000353,-0.00009
 336,0.00002095,0.00050705,0.00164858,0.00043574,-0.00002594,-0.0000337
 3,-0.00000387,-0.01444303,-0.02011073,-0.00124375,-0.00013546,-0.00009
 747,-0.00001493,-0.00006367,0.00019967,-0.00002123,-0.00002470,0.00005
 447,-0.00000609,0.00002236,-0.00010049,0.00003418,-0.00006680,0.000126
 91,-0.00005563,-0.00218722,0.00105074,-0.00056326,0.00003470,-0.000014
 90,0.00000559,-0.00002662,0.00001866,-0.00000456,0.00041315,0.00001535
 ,0.00006164,0.00005975,-0.00002423,0.00000682,0.00005593,-0.00002040,0
 .00001262,0.00004540,0.00006572,0.00000461,0.00134081,0.00280173,0.000
 20735,-0.11512652,-0.27418052,-0.00697795,-0.00000292,-0.00000285,-0.0
 0000014,-0.00001928,0.00001645,0.00000273,0.00000240,-0.00000318,-0.00
 000062,0.00004549,-0.00003690,0.00001642,0.00000710,-0.00000875,0.0000
 0174,-0.00000793,-0.00001003,-0.00000186,-0.00000262,-0.00002454,0.000
 00105,0.00131839,0.00037219,0.00021453,-0.00023384,0.00096165,-0.00032
 940,-0.00000736,-0.00001047,-0.00000018,0.00003348,-0.00002720,0.00000
 801,0.12453549,0.29041905,0.00023802,-0.00006794,-0.00121488,-0.000166
 29,0.00007836,0.00019681,-0.00006940,-0.00000134,0.00030841,-0.0011957
 4,0.00075782,0.00381862,-0.00000688,0.00002127,-0.00028252,0.00007855,
 0.00018266,0.00063819,-0.00005423,0.00006155,0.00029301,-0.00226118,0.
 00070410,0.00814257,0.00001790,-0.00000450,-0.00002192,0.00208071,0.00
 365022,0.00284946,-0.00000204,0.00001490,0.00005083,0.00003929,0.00001
 309,-0.00000232,0.00000578,-0.00001759,0.00002022,-0.00004110,-0.00023
 398,0.00050110,0.00002812,-0.00004598,-0.00072941,0.00078588,0.0000068
 1,-0.00271034,0.00001336,0.00000845,-0.00001660,-0.00000454,0.00000492
 ,0.00001534,0.00000965,-0.00007046,-0.00012238,0.00001275,0.00000235,-
 0.00008364,-0.00002509,0.00001020,0.00004010,-0.00000881,-0.00002909,0
 .00000807,-0.00227462,-0.00502361,0.00237427,-0.00843436,-0.00688311,-
 0.03579299,0.00000012,0.00000007,0.00000131,-0.00002786,0.00001323,0.0
 0012913,-0.00000625,-0.00002525,-0.00002948,-0.00002249,0.00000653,0.0
 0013273,-0.00000020,-0.00000047,0.00000218,0.00000441,-0.00000269,-0.0
 0001956,0.00000124,0.00000222,0.00000466,-0.00011490,-0.00009341,0.000
 22924,0.00094434,-0.00023488,-0.00457493,-0.00000165,-0.00000016,0.000
 00987,-0.00000509,0.00000557,0.00001949,0.01046551,0.00719306,0.025813
 87,0.00006674,0.00020208,0.00001651,-0.00015597,-0.00001304,-0.0000213
 0,-0.00014998,-0.00008833,-0.00001680,0.00010433,-0.00006211,0.0000144
 9,0.00005366,0.00011340,-0.00000239,-0.00009472,-0.00002177,-0.0000127
 9,-0.00077386,-0.00042256,-0.00006150,0.00010486,-0.00039215,0.0000649
 9,0.00006394,0.00032440,0.00001520,-0.00008057,-0.00011025,-0.00000614
 ,-0.00008321,0.00009851,-0.00001673,-0.00007647,-0.00001135,-0.0000118
 3,0.00092683,0.00106207,-0.00011187,-0.00120761,0.00065706,-0.00026193
 ,0.00168582,-0.00118862,0.00004198,0.00005081,0.00009326,0.00000276,0.
 00004518,-0.00005186,0.00000891,-0.00015772,-0.00019087,-0.00001786,-0
 .00003889,-0.00001625,-0.00000627,-0.00003750,0.00003738,-0.00001207,-
 0.00067763,-0.00043938,-0.00013091,0.00000192,0.00000511,-0.00000052,-
 0.00024263,0.00022743,-0.00005353,-0.00005041,-0.00004662,-0.00000959,
 -0.00166038,-0.00047953,0.00007511,0.00003509,-0.00013372,0.00000790,-
 0.00117181,0.00024599,0.00015870,-0.00004488,0.00001159,-0.00000762,-0
 .00002351,0.00004489,-0.00000546,-0.00003571,0.00017856,-0.00000903,-0
 .00005867,0.00003648,-0.00001076,-0.00002176,-0.00004574,-0.00000061,0
 .00004547,-0.00002938,0.00001215,0.00003485,0.00004896,0.00000669,-0.0
 0004421,-0.00001158,-0.00000632,-0.00006965,-0.00004158,-0.00000888,0.
 10408929,0.00002161,0.00038143,-0.00001727,-0.00009895,-0.00007664,-0.
 00001258,-0.00002563,-0.00010367,0.00000039,0.00007136,0.00002561,0.00
 001077,-0.00003250,0.00008618,-0.00000821,-0.00003031,-0.00003574,-0.0
 0000354,-0.00047677,-0.00069631,-0.00004695,0.00010852,-0.00013095,0.0
 0002222,-0.00005587,0.00005381,-0.00002183,-0.00003840,-0.00003540,-0.
 00000478,-0.00001353,0.00002882,-0.00000474,-0.00002228,-0.00002832,-0
 .00000239,-0.00003686,-0.00009946,0.00007194,-0.00079256,0.00028157,-0
 .00013984,0.00102592,-0.00013496,0.00018070,0.00003384,0.00006032,0.00
 000311,-0.00000937,0.00001412,-0.00000164,0.00002759,-0.00002904,0.000
 00757,-0.00005244,-0.00000619,-0.00000796,-0.00001834,0.00000129,-0.00
 000091,0.00023973,0.00013596,0.00005649,0.00004035,0.00000579,0.000006
 83,-0.00014962,0.00008783,-0.00002745,-0.00001054,-0.00002503,-0.00000
 007,0.00021971,-0.00020505,-0.00008489,0.00004766,0.00000625,0.0000077
 1,-0.00017682,-0.00068573,-0.00005051,-0.00001406,0.00000635,-0.000002
 97,-0.00000773,0.00001484,-0.00000248,-0.00004053,0.00009133,-0.000017
 36,-0.00000740,0.00001157,-0.00000247,-0.00000648,-0.00001312,-0.00000
 072,0.00001839,0.00001089,0.00000175,0.00000592,0.00003495,-0.00000296
 ,-0.00001350,-0.00000075,-0.00000248,-0.00003207,-0.00001347,-0.000005
 09,-0.16247545,0.38428930,0.00001745,0.00004158,-0.00004475,-0.0000223
 0,-0.00000278,-0.00002102,-0.00002690,-0.00001647,-0.00001127,0.000016
 61,-0.00001003,0.00002368,0.00000569,0.00002113,0.00001650,-0.00001614
 ,-0.00000472,-0.00000785,-0.00010965,-0.00011365,-0.00020158,0.0000336
 7,-0.00008179,-0.00008333,0.00002760,0.00005243,-0.00008910,-0.0000135
 9,-0.00002006,-0.00000826,-0.00001322,0.00001736,-0.00001113,-0.000013
 33,-0.00000224,-0.00000428,-0.00000579,0.00023825,0.00091159,-0.000256
 49,0.00013899,0.00005256,0.00017359,-0.00019438,0.00110364,0.00000825,
 0.00001727,0.00000657,0.00000688,-0.00000878,0.00000821,-0.00002994,-0
 .00003303,0.00001166,-0.00000804,-0.00000276,0.00000319,-0.00000953,0.
 00000774,0.00001582,-0.00014536,-0.00006523,0.00014641,-0.00000012,0.0
 0000110,0.00000448,-0.00004845,0.00004281,0.00000687,-0.00001204,-0.00
 000788,0.00001428,-0.00009126,-0.00015463,-0.00161591,0.00000919,-0.00
 002156,-0.00000150,0.00009810,0.00003061,-0.00152314,-0.00000757,0.000
 00195,-0.00000431,-0.00000346,0.00000782,-0.00000529,-0.00000242,0.000
 03264,-0.00003499,-0.00000947,0.00000621,-0.00000758,-0.00000327,-0.00
 000846,-0.00000423,0.00001136,-0.00000609,-0.00001471,0.00000915,0.000
 00788,-0.00001757,-0.00000743,-0.00000221,-0.00000419,-0.00001190,-0.0
 0000780,-0.00000675,-0.12918240,-0.01701149,0.62208522,-0.00003735,-0.
 00018704,0.00004637,0.00005962,0.00002914,-0.00000282,0.00004572,0.000
 04810,0.00000055,-0.00005163,0.00000538,-0.00001128,-0.00000190,-0.000
 05138,-0.00000068,0.00003311,0.00001769,0.00000266,0.00027016,0.000402
 03,0.00007356,-0.00007413,0.00007794,0.00003898,-0.00000855,-0.0000279
 1,0.00003208,0.00003212,0.00003928,0.00000322,0.00002181,-0.00003511,0
 .00000640,0.00002688,0.00001193,0.00000557,0.00007146,0.00005597,-0.00
 019466,0.00039567,-0.00021472,0.00003181,-0.00080828,-0.00003135,-0.00
 059014,-0.00002379,-0.00004389,-0.00000174,-0.00000872,0.00000984,-0.0
 0000272,0.00001313,0.00004442,-0.00000120,0.00002511,0.00000578,0.0000
 0239,0.00001252,-0.00000405,-0.00000130,-0.00007522,-0.00002288,-0.000
 06687,-0.00001488,-0.00000260,-0.00000330,0.00009511,-0.00008097,0.000
 01566,0.00001496,0.00001276,-0.00000205,0.00005628,0.00005577,0.000380
 79,-0.00003753,-0.00001824,-0.00001344,-0.00060988,-0.00003780,0.00066
 564,0.00001653,-0.00000513,0.00000360,0.00000784,-0.00001636,0.0000027
 2,0.00001861,-0.00005107,0.00000587,0.00001472,-0.00001278,0.00000360,
 0.00000766,0.00001663,0.00000103,-0.00001934,0.00000199,0.00000134,-0.
 00001022,-0.00001958,0.00000216,0.00001619,0.00000337,0.00000299,0.000
 02667,0.00001531,0.00000397,-0.08958893,0.13317421,0.14287757,0.090335
 37,0.00001679,-0.00002727,0.00000838,0.00004282,0.00000221,0.00000367,
 0.00000698,0.00002407,-0.00000602,-0.00001012,-0.00000431,-0.00000056,
 0.00000160,-0.00001891,0.00000620,0.00000909,0.00000862,-0.00000033,0.
 00023329,0.00006328,0.00001073,-0.00004489,-0.00003734,0.00000056,0.00
 000633,-0.00005449,-0.00001522,0.00001106,0.00000873,0.00000042,0.0000
 0921,-0.00001203,0.00000024,0.00001160,0.00000596,0.00000155,-0.000157
 88,0.00000031,0.00019275,0.00003927,0.00006968,0.00001791,-0.00013439,
 -0.00020427,-0.00014526,-0.00001090,-0.00001406,0.00000011,-0.00000096
 ,0.00000080,0.00000101,0.00001158,0.00002345,0.00000729,0.00000979,-0.
 00000159,0.00000223,0.00000619,-0.00000503,0.00000552,0.00006236,0.000
 03052,0.00002164,-0.00000717,-0.00000146,-0.00000026,0.00002231,-0.000
 00198,0.00000269,-0.00000293,0.00000274,0.00000012,-0.00009714,-0.0000
 3815,-0.00027659,-0.00002833,-0.00004373,-0.00000161,-0.00007939,0.000
 40835,0.00031622,0.00000531,-0.00000180,0.00000048,0.00000322,-0.00000
 570,-0.00000015,0.00000122,-0.00002559,-0.00001048,0.00000694,-0.00000
 474,-0.00000016,0.00000163,0.00000441,-0.00000044,-0.00000549,-0.00000
 792,0.00000010,-0.00000360,-0.00001085,-0.00000575,0.00000518,0.000000
 89,0.00000027,0.00000618,0.00000386,0.00000035,0.14638461,-0.22872802,
 -0.21265010,-0.13566524,0.21776587,-0.00002918,0.00001874,0.00000546,-
 0.00001422,0.00000155,-0.00000139,-0.00000906,-0.00000912,-0.00000180,
 0.00000225,0.00000008,-0.00000344,-0.00000069,0.00000733,-0.00000219,-
 0.00000384,-0.00000215,-0.00000056,-0.00013056,-0.00002794,0.00001517,
 0.00000451,-0.00001690,0.00003030,-0.00001095,0.00003749,0.00001867,-0
 .00000549,-0.00000281,0.00000223,-0.00000573,0.00000376,0.00000130,-0.
 00000452,-0.00000111,0.00000090,-0.00001458,0.00007865,-0.00019849,-0.
 00008085,0.00000408,-0.00007658,0.00021076,-0.00001227,-0.00016501,0.0
 0000350,0.00000283,-0.00000306,0.00000116,-0.00000016,-0.00000318,-0.0
 0000988,-0.00000924,-0.00001065,-0.00000301,0.00000049,-0.00000354,-0.
 00000266,0.00000378,-0.00000696,-0.00006856,-0.00004032,-0.00005507,0.
 00000057,0.00000007,-0.00000282,-0.00001298,0.00000153,-0.00001527,0.0
 0000006,-0.00000494,-0.00000778,0.00039606,-0.00015626,0.00044033,0.00
 001692,0.00001371,0.00003076,0.00015831,0.00017587,0.00034431,-0.00000
 152,0.00000047,0.00000156,-0.00000145,0.00000155,0.00000191,0.00000343
 ,0.00001275,0.00001686,-0.00000341,0.00000166,0.00000246,-0.00000100,-
 0.00000101,0.00000241,0.00000106,0.00000216,0.00001100,0.00000084,0.00
 000402,0.00000771,-0.00000149,-0.00000011,0.00000160,-0.00000333,-0.00
 000115,0.00000324,0.11705120,-0.15295481,-0.23366906,-0.13865952,0.187
 69055,0.26099026,-0.00004537,-0.00014324,-0.00004909,0.00005037,0.0000
 2792,0.00001868,0.00004143,0.00003622,0.00000913,-0.00004956,0.0000116
 4,-0.00000437,-0.00001022,-0.00004479,0.00000458,0.00003285,0.00001425
 ,0.00000670,0.00019425,0.00030656,-0.00004406,-0.00003734,0.00006353,-
 0.00008159,-0.00000518,-0.00002998,-0.00003968,0.00002880,0.00003973,0
 .00000179,0.00002218,-0.00003488,0.00000348,0.00002529,0.00000894,0.00
 000141,-0.00013480,0.00005358,0.00023387,0.00028547,-0.00021199,0.0001
 3965,-0.00078584,0.00005300,0.00040899,-0.00002056,-0.00004100,-0.0000
 0026,-0.00001122,0.00001346,-0.00000056,0.00001800,0.00004869,0.000004
 96,0.00001999,0.00000729,0.00000550,0.00001027,-0.00000352,0.00000775,
 -0.00006705,0.00001399,0.00006455,-0.00001118,-0.00000249,0.00000018,0
 .00007908,-0.00008140,0.00002589,0.00001528,0.00000987,0.00000904,0.00
 043369,0.00000068,-0.00044119,-0.00001899,0.00000392,-0.00000400,-0.00
 007078,-0.00005804,-0.00094663,0.00001663,-0.00000486,0.00000183,0.000
 00801,-0.00001622,0.00000083,0.00002099,-0.00004742,-0.00000153,0.0000
 1574,-0.00001267,0.00000171,0.00000800,0.00001650,-0.00000096,-0.00001
 542,0.00000501,-0.00001138,-0.00000897,-0.00001800,-0.00000617,0.00001
 630,0.00000356,0.00000145,0.00002525,0.00001494,0.00000200,-0.01076211
 ,0.02960320,-0.01324504,-0.00024690,-0.01066616,0.02122789,0.01093361,
 0.00002358,-0.00005045,-0.00000059,0.00004536,0.00000814,0.00001285,0.
 00000304,0.00003010,0.00000466,-0.00001344,-0.00000722,-0.00000343,0.0
 0000757,-0.00002332,-0.00000323,0.00000897,0.00001173,0.00000259,0.000
 23459,0.00012185,0.00006379,-0.00004855,-0.00003422,-0.00001412,0.0000
 0822,-0.00005919,0.00002992,0.00001236,0.00000901,0.00000305,0.0000077
 4,-0.00001218,0.00000448,0.00001163,0.00000814,0.00000170,-0.00001094,
 -0.00004257,-0.00024783,0.00008223,0.00004668,-0.00000493,-0.00025114,
 -0.00017690,0.00011169,-0.00001203,-0.00001703,-0.00000295,0.00000134,
 -0.00000184,-0.00000147,0.00001050,0.00002181,-0.00000835,0.00001379,-
 0.00000141,0.00000151,0.00000894,-0.00000573,-0.00000411,0.00005753,0.
 00002149,-0.00002174,-0.00000992,-0.00000194,-0.00000293,0.00002940,-0
 .00000444,0.00000554,-0.00000259,0.00000338,-0.00000184,-0.00026855,0.
 00003190,0.00029271,-0.00003226,-0.00004971,-0.00000483,0.00000657,0.0
 0031915,-0.00038508,0.00000510,-0.00000197,0.00000171,0.00000291,-0.00
 000567,0.00000220,-0.00000094,-0.00003291,0.00001997,0.00000588,-0.000
 00465,0.00000346,0.00000150,0.00000442,0.00000080,-0.00000599,-0.00000
 966,-0.00000093,-0.00000542,-0.00001235,0.00000766,0.00000493,0.000000
 72,0.00000165,0.00000699,0.00000407,0.00000183,0.01650035,-0.15458036,
 0.22976038,0.00250057,0.01082547,-0.03482282,-0.01893984,0.14366767,0.
 00000920,-0.00010314,-0.00000388,0.00003389,0.00001360,0.00001189,0.00
 002962,0.00002686,0.00000443,-0.00002391,0.00000271,-0.00000639,0.0000
 0029,-0.00002818,0.00000166,0.00001758,0.00000929,0.00000330,0.0002118
 9,0.00021036,0.00002706,-0.00002822,0.00006012,-0.00001297,0.00000570,
 -0.00004175,0.00000586,0.00001755,0.00001950,0.00000453,0.00001346,-0.
 00001750,0.00000478,0.00001407,0.00000584,0.00000264,0.00004973,-0.000
 05519,-0.00003831,0.00027399,-0.00011950,0.00002305,-0.00058955,0.0000
 4959,-0.00003543,-0.00001129,-0.00002110,-0.00000387,-0.00000354,0.000
 00379,-0.00000339,0.00001585,0.00002480,-0.00000613,0.00001423,0.00000
 252,0.00000028,0.00000896,-0.00000523,-0.00000197,0.00002750,0.0000194
 1,-0.00001237,-0.00000567,-0.00000145,-0.00000299,0.00005654,-0.000039
 11,0.00000156,0.00000967,0.00000970,-0.00000376,-0.00031262,0.00020045
 ,0.00002977,-0.00003881,-0.00001051,0.00002248,-0.00036811,-0.00026143
 ,-0.00015725,0.00000756,-0.00000236,0.00000272,0.00000391,-0.00000778,
 0.00000273,0.00000181,-0.00003281,0.00001665,0.00000801,-0.00000637,0.
 00000414,0.00000353,0.00000790,0.00000212,-0.00001150,0.00000079,0.000
 00520,-0.00000644,-0.00001106,0.00000473,0.00000738,0.00000157,0.00000
 255,0.00001337,0.00000775,0.00000502,0.01250851,0.17006894,-0.38701886
 ,-0.00465881,0.02482194,-0.02770154,-0.00730536,-0.19480295,0.41481999
 \\-0.00000019,-0.00000248,0.00000030,0.00000026,0.00000093,0.00000026,
 -0.00000066,-0.00000003,0.00000006,-0.00000034,0.00000003,-0.00000007,
 0.00000006,0.00000077,0.00000025,0.00000039,0.00000060,0.00000007,0.00
 000381,-0.00000368,-0.00000040,0.00000065,0.00000018,0.00000002,0.0000
 0196,-0.00000025,-0.00000144,-0.00000142,0.00000091,-0.00000031,0.0000
 0099,0.00000077,-0.00000005,-0.00000078,0.00000039,-0.00000034,-0.0000
 0152,0.00000446,0.00000015,-0.00000049,-0.00000270,-0.00000034,-0.0000
 0376,0.00000218,-0.00000075,0.00000011,0.00000073,-0.00000009,0.000000
 30,0.00000069,-0.00000022,0.00000061,0.00000041,0.00000001,-0.00000017
 ,0.00000152,-0.00000021,0.00000086,-0.00000008,0.00000014,0.00000134,-
 0.00000195,0.00000124,0.00000032,0.00000133,-0.00000014,-0.00000245,-0
 .00000038,-0.00000021,0.00000030,-0.00000014,-0.00000006,0.00000019,-0
 .00000256,0.00000194,-0.00000059,-0.00000021,0.00000007,-0.00000016,-0
 .00000084,0.00000173,-0.00000034,0.00000108,-0.00000019,0.00000085,0.0
 0000101,-0.00000003,0.00000099,-0.00000054,-0.00000013,0.00000088,0.00
 000051,0.00000007,-0.00000099,0.00000090,-0.00000017,-0.00000103,-0.00
 000014,0.00000010,0.00000107,-0.00000034,0.00000025,0.00000030,0.00000
 118,-0.00000010,-0.00000126,0.00000042,-0.00000009,0.00000472,-0.00000
 693,-0.00000183,-0.00000150,0.00000156,-0.00000011,-0.00000331,0.00000
 069,0.00000062\\\@


 THERE IS SOMETHING FASCINATING ABOUT SCIENCE.
 ONE GETS SUCH WHOLESALE CONJECTURE OUT OF SUCH TRIFLING INVESTMENTS.

                                                       -- MARK TWAIN
 Job cpu time:  0 days  5 hours  3 minutes 43.6 seconds.
 File lengths (MBytes):  RWF=    746 Int=      0 D2E=      0 Chk=     13 Scr=      1
 Normal termination of Gaussian 09 at Wed Jun 11 21:02:43 2025.
