 Entering Gaussian System, Link 0=g09
 Input=C-opt.gjf
 Output=C-opt.log
 Initial command:
 /share/apps/g09/l1.exe /scratch/Gau-30560.inp -scrdir=/scratch/
 Entering Link 1 = /share/apps/g09/l1.exe PID=     30561.
  
 Copyright (c) 1988,1990,1992,1993,1995,1998,2003,2009,2010,
            Gaussian, Inc.  All Rights Reserved.
  
 This is part of the Gaussian(R) 09 program.  It is based on
 the Gaussian(R) 03 system (copyright 2003, Gaussian, Inc.),
 the Gaussian(R) 98 system (copyright 1998, Gaussian, Inc.),
 the Gaussian(R) 94 system (copyright 1995, Gaussian, Inc.),
 the Gaussian 92(TM) system (copyright 1992, Gaussian, Inc.),
 the Gaussian 90(TM) system (copyright 1990, Gaussian, Inc.),
 the Gaussian 88(TM) system (copyright 1988, Gaussian, Inc.),
 the Gaussian 86(TM) system (copyright 1986, Carnegie Mellon
 University), and the Gaussian 82(TM) system (copyright 1983,
 Carnegie Mellon University). Gaussian is a federally registered
 trademark of Gaussian, Inc.
  
 This software contains proprietary and confidential information,
 including trade secrets, belonging to Gaussian, Inc.
  
 This software is provided under written license and may be
 used, copied, transmitted, or stored only in accord with that
 written license.
  
 The following legend is applicable only to US Government
 contracts under FAR:
  
                    RESTRICTED RIGHTS LEGEND
  
 Use, reproduction and disclosure by the US Government is
 subject to restrictions as set forth in subparagraphs (a)
 and (c) of the Commercial Computer Software - Restricted
 Rights clause in FAR 52.227-19.
  
 Gaussian, Inc.
 340 Quinnipiac St., Bldg. 40, Wallingford CT 06492
  
  
 ---------------------------------------------------------------
 Warning -- This program may not be used in any manner that
 competes with the business of Gaussian, Inc. or will provide
 assistance to any competitor of Gaussian, Inc.  The licensee
 of this program is prohibited from giving any competitor of
 Gaussian, Inc. access to this program.  By using this program,
 the user acknowledges that Gaussian, Inc. is engaged in the
 business of creating and licensing software in the field of
 computational chemistry and represents and warrants to the
 licensee that it is not a competitor of Gaussian, Inc. and that
 it will not use this program in any manner prohibited above.
 ---------------------------------------------------------------
  

 Cite this work as:
 Gaussian 09, Revision B.01,
 M. J. Frisch, G. W. Trucks, H. B. Schlegel, G. E. Scuseria, 
 M. A. Robb, J. R. Cheeseman, G. Scalmani, V. Barone, B. Mennucci, 
 G. A. Petersson, H. Nakatsuji, M. Caricato, X. Li, H. P. Hratchian, 
 A. F. Izmaylov, J. Bloino, G. Zheng, J. L. Sonnenberg, M. Hada, 
 M. Ehara, K. Toyota, R. Fukuda, J. Hasegawa, M. Ishida, T. Nakajima, 
 Y. Honda, O. Kitao, H. Nakai, T. Vreven, J. A. Montgomery, Jr., 
 J. E. Peralta, F. Ogliaro, M. Bearpark, J. J. Heyd, E. Brothers, 
 K. N. Kudin, V. N. Staroverov, T. Keith, R. Kobayashi, J. Normand, 
 K. Raghavachari, A. Rendell, J. C. Burant, S. S. Iyengar, J. Tomasi, 
 M. Cossi, N. Rega, J. M. Millam, M. Klene, J. E. Knox, J. B. Cross, 
 V. Bakken, C. Adamo, J. Jaramillo, R. Gomperts, R. E. Stratmann, 
 O. Yazyev, A. J. Austin, R. Cammi, C. Pomelli, J. W. Ochterski, 
 R. L. Martin, K. Morokuma, V. G. Zakrzewski, G. A. Voth, 
 P. Salvador, J. J. Dannenberg, S. Dapprich, A. D. Daniels, 
 O. Farkas, J. B. Foresman, J. V. Ortiz, J. Cioslowski, 
 and D. J. Fox, Gaussian, Inc., Wallingford CT, 2010.
 
 ******************************************
 Gaussian 09:  AM64L-G09RevB.01 12-Aug-2010
                 5-Jun-2025 
 ******************************************
 %nprocshared=8
 Will use up to    8 processors via shared memory.
 %mem=10GB
 ---------------------------------------------------
 # opt freq b3lyp/6-31g(d) geom=connectivity scf=xqc
 ---------------------------------------------------
 1/14=-1,18=20,19=15,26=3,38=1,57=2/1,3;
 2/9=110,12=2,17=6,18=5,40=1/2;
 3/5=1,6=6,7=1,11=2,16=1,25=1,30=1,71=1,74=-5/1,2,3;
 4//1;
 5/5=2,8=3,13=1,38=5/2,8;
 6/7=2,8=2,9=2,10=2,28=1/1;
 7//1,2,3,16;
 1/14=-1,18=20,19=15/3(2);
 2/9=110/2;
 99//99;
 2/9=110/2;
 3/5=1,6=6,7=1,11=2,16=1,25=1,30=1,71=1,74=-5/1,2,3;
 4/5=5,16=3/1;
 5/5=2,8=3,13=1,38=5/2,8;
 7//1,2,3,16;
 1/14=-1,18=20,19=15/3(-5);
 2/9=110/2;
 6/7=2,8=2,9=2,10=2,19=2,28=1/1;
 99/9=1/99;
 ------------------
 Coronene_optimized
 ------------------
 Symbolic Z-matrix:
 Charge =  0 Multiplicity = 1
 C                    -0.5083   -1.3198    0. 
 C                     0.8889   -1.1001   -0.0001 
 C                    -1.3972   -0.2197    0. 
 C                     1.3972    0.2198   -0.0001 
 C                    -0.8889    1.1001    0. 
 C                     0.5083    1.3198    0. 
 C                    -1.016    -2.6382    0. 
 C                     1.7769   -2.199     0. 
 C                    -2.793    -0.4393   -0.0001 
 C                     2.7929    0.4392   -0.0001 
 C                    -1.7769    2.199     0.0001 
 C                     1.0161    2.6383    0. 
 C                    -2.4028   -2.8386    0. 
 C                     1.2571   -3.5001    0.0002 
 C                    -0.1218   -3.7169    0.0002 
 C                     3.28      1.753    -0.0001 
 C                    -1.2569    3.5001    0.0001 
 C                    -3.6599    0.6615   -0.0001 
 C                     2.4028    2.8386    0.0001 
 C                    -3.1582    1.9641    0. 
 C                    -3.28     -1.753    -0.0002 
 C                     0.1219    3.717     0.0001 
 C                     3.1581   -1.964     0. 
 C                     3.6598   -0.6615   -0.0001 
 H                    -2.8165   -3.845     0. 
 H                     1.9217   -4.3616    0.0004 
 H                    -0.49     -4.7409    0.0004 
 H                     2.8166    3.845     0.0002 
 H                    -1.9215    4.3616    0.0002 
 H                    -4.3508   -1.9462   -0.0002 
 H                    -3.8609    2.7949    0.0001 
 H                     4.3508    1.9461   -0.0001 
 H                     3.8609   -2.7948    0. 
 H                    -4.7383    0.5167   -0.0001 
 H                     0.49      4.741     0.0002 
 H                     4.7382   -0.5167   -0.0001 
 

 GradGradGradGradGradGradGradGradGradGradGradGradGradGradGradGradGradGrad
 Berny optimization.
 Initialization pass.
                           ----------------------------
                           !    Initial Parameters    !
                           ! (Angstroms and Degrees)  !
 --------------------------                            --------------------------
 ! Name  Definition              Value          Derivative Info.                !
 --------------------------------------------------------------------------------
 ! R1    R(1,2)                  1.4144         estimate D2E/DX2                !
 ! R2    R(1,3)                  1.4143         estimate D2E/DX2                !
 ! R3    R(1,7)                  1.4128         estimate D2E/DX2                !
 ! R4    R(2,4)                  1.4144         estimate D2E/DX2                !
 ! R5    R(2,8)                  1.4128         estimate D2E/DX2                !
 ! R6    R(3,5)                  1.4143         estimate D2E/DX2                !
 ! R7    R(3,9)                  1.413          estimate D2E/DX2                !
 ! R8    R(4,6)                  1.4143         estimate D2E/DX2                !
 ! R9    R(4,10)                 1.4128         estimate D2E/DX2                !
 ! R10   R(5,6)                  1.4144         estimate D2E/DX2                !
 ! R11   R(5,11)                 1.4128         estimate D2E/DX2                !
 ! R12   R(6,12)                 1.4129         estimate D2E/DX2                !
 ! R13   R(7,13)                 1.4012         estimate D2E/DX2                !
 ! R14   R(7,15)                 1.4011         estimate D2E/DX2                !
 ! R15   R(8,14)                 1.4011         estimate D2E/DX2                !
 ! R16   R(8,23)                 1.401          estimate D2E/DX2                !
 ! R17   R(9,18)                 1.4012         estimate D2E/DX2                !
 ! R18   R(9,21)                 1.4011         estimate D2E/DX2                !
 ! R19   R(10,16)                1.4012         estimate D2E/DX2                !
 ! R20   R(10,24)                1.4011         estimate D2E/DX2                !
 ! R21   R(11,17)                1.4012         estimate D2E/DX2                !
 ! R22   R(11,20)                1.4011         estimate D2E/DX2                !
 ! R23   R(12,19)                1.4011         estimate D2E/DX2                !
 ! R24   R(12,22)                1.4011         estimate D2E/DX2                !
 ! R25   R(13,21)                1.3957         estimate D2E/DX2                !
 ! R26   R(13,25)                1.0881         estimate D2E/DX2                !
 ! R27   R(14,15)                1.3958         estimate D2E/DX2                !
 ! R28   R(14,26)                1.0881         estimate D2E/DX2                !
 ! R29   R(15,27)                1.0882         estimate D2E/DX2                !
 ! R30   R(16,19)                1.3957         estimate D2E/DX2                !
 ! R31   R(16,32)                1.0881         estimate D2E/DX2                !
 ! R32   R(17,22)                1.3958         estimate D2E/DX2                !
 ! R33   R(17,29)                1.0881         estimate D2E/DX2                !
 ! R34   R(18,20)                1.3959         estimate D2E/DX2                !
 ! R35   R(18,34)                1.0881         estimate D2E/DX2                !
 ! R36   R(19,28)                1.0882         estimate D2E/DX2                !
 ! R37   R(20,31)                1.0881         estimate D2E/DX2                !
 ! R38   R(21,30)                1.0881         estimate D2E/DX2                !
 ! R39   R(22,35)                1.0882         estimate D2E/DX2                !
 ! R40   R(23,24)                1.3958         estimate D2E/DX2                !
 ! R41   R(23,33)                1.0882         estimate D2E/DX2                !
 ! R42   R(24,36)                1.0881         estimate D2E/DX2                !
 ! A1    A(2,1,3)              120.0026         estimate D2E/DX2                !
 ! A2    A(2,1,7)              119.9973         estimate D2E/DX2                !
 ! A3    A(3,1,7)              120.0001         estimate D2E/DX2                !
 ! A4    A(1,2,4)              119.9981         estimate D2E/DX2                !
 ! A5    A(1,2,8)              120.0048         estimate D2E/DX2                !
 ! A6    A(4,2,8)              119.997          estimate D2E/DX2                !
 ! A7    A(1,3,5)              119.9978         estimate D2E/DX2                !
 ! A8    A(1,3,9)              119.9978         estimate D2E/DX2                !
 ! A9    A(5,3,9)              120.0044         estimate D2E/DX2                !
 ! A10   A(2,4,6)              119.9967         estimate D2E/DX2                !
 ! A11   A(2,4,10)             119.9956         estimate D2E/DX2                !
 ! A12   A(6,4,10)             120.0077         estimate D2E/DX2                !
 ! A13   A(3,5,6)              119.9996         estimate D2E/DX2                !
 ! A14   A(3,5,11)             119.9956         estimate D2E/DX2                !
 ! A15   A(6,5,11)             120.0048         estimate D2E/DX2                !
 ! A16   A(4,6,5)              120.0052         estimate D2E/DX2                !
 ! A17   A(4,6,12)             119.9952         estimate D2E/DX2                !
 ! A18   A(5,6,12)             119.9996         estimate D2E/DX2                !
 ! A19   A(1,7,13)             119.2837         estimate D2E/DX2                !
 ! A20   A(1,7,15)             119.2815         estimate D2E/DX2                !
 ! A21   A(13,7,15)            121.4348         estimate D2E/DX2                !
 ! A22   A(2,8,14)             119.2819         estimate D2E/DX2                !
 ! A23   A(2,8,23)             119.2851         estimate D2E/DX2                !
 ! A24   A(14,8,23)            121.4331         estimate D2E/DX2                !
 ! A25   A(3,9,18)             119.2801         estimate D2E/DX2                !
 ! A26   A(3,9,21)             119.2812         estimate D2E/DX2                !
 ! A27   A(18,9,21)            121.4387         estimate D2E/DX2                !
 ! A28   A(4,10,16)            119.2762         estimate D2E/DX2                !
 ! A29   A(4,10,24)            119.29           estimate D2E/DX2                !
 ! A30   A(16,10,24)           121.4338         estimate D2E/DX2                !
 ! A31   A(5,11,17)            119.2743         estimate D2E/DX2                !
 ! A32   A(5,11,20)            119.2898         estimate D2E/DX2                !
 ! A33   A(17,11,20)           121.4359         estimate D2E/DX2                !
 ! A34   A(6,12,19)            119.2826         estimate D2E/DX2                !
 ! A35   A(6,12,22)            119.2792         estimate D2E/DX2                !
 ! A36   A(19,12,22)           121.4382         estimate D2E/DX2                !
 ! A37   A(7,13,21)            120.7167         estimate D2E/DX2                !
 ! A38   A(7,13,25)            120.5687         estimate D2E/DX2                !
 ! A39   A(21,13,25)           118.7146         estimate D2E/DX2                !
 ! A40   A(8,14,15)            120.7124         estimate D2E/DX2                !
 ! A41   A(8,14,26)            120.5747         estimate D2E/DX2                !
 ! A42   A(15,14,26)           118.7129         estimate D2E/DX2                !
 ! A43   A(7,15,14)            120.7221         estimate D2E/DX2                !
 ! A44   A(7,15,27)            120.5655         estimate D2E/DX2                !
 ! A45   A(14,15,27)           118.7124         estimate D2E/DX2                !
 ! A46   A(10,16,19)           120.7181         estimate D2E/DX2                !
 ! A47   A(10,16,32)           120.565          estimate D2E/DX2                !
 ! A48   A(19,16,32)           118.7169         estimate D2E/DX2                !
 ! A49   A(11,17,22)           120.7247         estimate D2E/DX2                !
 ! A50   A(11,17,29)           120.5671         estimate D2E/DX2                !
 ! A51   A(22,17,29)           118.7082         estimate D2E/DX2                !
 ! A52   A(9,18,20)            120.7146         estimate D2E/DX2                !
 ! A53   A(9,18,34)            120.5735         estimate D2E/DX2                !
 ! A54   A(20,18,34)           118.7119         estimate D2E/DX2                !
 ! A55   A(12,19,16)           120.7202         estimate D2E/DX2                !
 ! A56   A(12,19,28)           120.5701         estimate D2E/DX2                !
 ! A57   A(16,19,28)           118.7097         estimate D2E/DX2                !
 ! A58   A(11,20,18)           120.7156         estimate D2E/DX2                !
 ! A59   A(11,20,31)           120.5737         estimate D2E/DX2                !
 ! A60   A(18,20,31)           118.7108         estimate D2E/DX2                !
 ! A61   A(9,21,13)            120.7205         estimate D2E/DX2                !
 ! A62   A(9,21,30)            120.5678         estimate D2E/DX2                !
 ! A63   A(13,21,30)           118.7117         estimate D2E/DX2                !
 ! A64   A(12,22,17)           120.7174         estimate D2E/DX2                !
 ! A65   A(12,22,35)           120.5705         estimate D2E/DX2                !
 ! A66   A(17,22,35)           118.7121         estimate D2E/DX2                !
 ! A67   A(8,23,24)            120.7218         estimate D2E/DX2                !
 ! A68   A(8,23,33)            120.573          estimate D2E/DX2                !
 ! A69   A(24,23,33)           118.7053         estimate D2E/DX2                !
 ! A70   A(10,24,23)           120.7106         estimate D2E/DX2                !
 ! A71   A(10,24,36)           120.5761         estimate D2E/DX2                !
 ! A72   A(23,24,36)           118.7133         estimate D2E/DX2                !
 ! D1    D(3,1,2,4)              0.0047         estimate D2E/DX2                !
 ! D2    D(3,1,2,8)            179.9953         estimate D2E/DX2                !
 ! D3    D(7,1,2,4)            180.0            estimate D2E/DX2                !
 ! D4    D(7,1,2,8)             -0.0094         estimate D2E/DX2                !
 ! D5    D(2,1,3,5)             -0.0047         estimate D2E/DX2                !
 ! D6    D(2,1,3,9)            179.9906         estimate D2E/DX2                !
 ! D7    D(7,1,3,5)            180.0            estimate D2E/DX2                !
 ! D8    D(7,1,3,9)             -0.0047         estimate D2E/DX2                !
 ! D9    D(2,1,7,13)          -179.9953         estimate D2E/DX2                !
 ! D10   D(2,1,7,15)             0.0141         estimate D2E/DX2                !
 ! D11   D(3,1,7,13)             0.0            estimate D2E/DX2                !
 ! D12   D(3,1,7,15)          -179.9906         estimate D2E/DX2                !
 ! D13   D(1,2,4,6)              0.0            estimate D2E/DX2                !
 ! D14   D(1,2,4,10)           179.9953         estimate D2E/DX2                !
 ! D15   D(8,2,4,6)           -179.9906         estimate D2E/DX2                !
 ! D16   D(8,2,4,10)             0.0047         estimate D2E/DX2                !
 ! D17   D(1,2,8,14)            -0.0001         estimate D2E/DX2                !
 ! D18   D(1,2,8,23)          -179.9953         estimate D2E/DX2                !
 ! D19   D(4,2,8,14)           179.9906         estimate D2E/DX2                !
 ! D20   D(4,2,8,23)            -0.0046         estimate D2E/DX2                !
 ! D21   D(1,3,5,6)              0.0            estimate D2E/DX2                !
 ! D22   D(1,3,5,11)          -179.9953         estimate D2E/DX2                !
 ! D23   D(9,3,5,6)           -179.9953         estimate D2E/DX2                !
 ! D24   D(9,3,5,11)             0.0094         estimate D2E/DX2                !
 ! D25   D(1,3,9,18)          -179.9999         estimate D2E/DX2                !
 ! D26   D(1,3,9,21)            -0.0001         estimate D2E/DX2                !
 ! D27   D(5,3,9,18)            -0.0046         estimate D2E/DX2                !
 ! D28   D(5,3,9,21)           179.9952         estimate D2E/DX2                !
 ! D29   D(2,4,6,5)             -0.0047         estimate D2E/DX2                !
 ! D30   D(2,4,6,12)           180.0            estimate D2E/DX2                !
 ! D31   D(10,4,6,5)          -180.0            estimate D2E/DX2                !
 ! D32   D(10,4,6,12)            0.0047         estimate D2E/DX2                !
 ! D33   D(2,4,10,16)          180.0            estimate D2E/DX2                !
 ! D34   D(2,4,10,24)            0.0            estimate D2E/DX2                !
 ! D35   D(6,4,10,16)           -0.0047         estimate D2E/DX2                !
 ! D36   D(6,4,10,24)          179.9953         estimate D2E/DX2                !
 ! D37   D(3,5,6,4)              0.0047         estimate D2E/DX2                !
 ! D38   D(3,5,6,12)           180.0            estimate D2E/DX2                !
 ! D39   D(11,5,6,4)           180.0            estimate D2E/DX2                !
 ! D40   D(11,5,6,12)           -0.0047         estimate D2E/DX2                !
 ! D41   D(3,5,11,17)          179.9999         estimate D2E/DX2                !
 ! D42   D(3,5,11,20)           -0.0093         estimate D2E/DX2                !
 ! D43   D(6,5,11,17)            0.0046         estimate D2E/DX2                !
 ! D44   D(6,5,11,20)          179.9954         estimate D2E/DX2                !
 ! D45   D(4,6,12,19)           -0.0094         estimate D2E/DX2                !
 ! D46   D(4,6,12,22)         -180.0            estimate D2E/DX2                !
 ! D47   D(5,6,12,19)          179.9953         estimate D2E/DX2                !
 ! D48   D(5,6,12,22)            0.0047         estimate D2E/DX2                !
 ! D49   D(1,7,13,21)            0.0096         estimate D2E/DX2                !
 ! D50   D(1,7,13,25)          180.0            estimate D2E/DX2                !
 ! D51   D(15,7,13,21)         180.0            estimate D2E/DX2                !
 ! D52   D(15,7,13,25)          -0.0096         estimate D2E/DX2                !
 ! D53   D(1,7,15,14)           -0.0094         estimate D2E/DX2                !
 ! D54   D(1,7,15,27)          179.988          estimate D2E/DX2                !
 ! D55   D(13,7,15,14)        -179.9999         estimate D2E/DX2                !
 ! D56   D(13,7,15,27)          -0.0024         estimate D2E/DX2                !
 ! D57   D(2,8,14,15)            0.0048         estimate D2E/DX2                !
 ! D58   D(2,8,14,26)         -179.9927         estimate D2E/DX2                !
 ! D59   D(23,8,14,15)         179.9999         estimate D2E/DX2                !
 ! D60   D(23,8,14,26)           0.0024         estimate D2E/DX2                !
 ! D61   D(2,8,23,24)           -0.0001         estimate D2E/DX2                !
 ! D62   D(2,8,23,33)         -179.9954         estimate D2E/DX2                !
 ! D63   D(14,8,23,24)        -179.9952         estimate D2E/DX2                !
 ! D64   D(14,8,23,33)           0.0096         estimate D2E/DX2                !
 ! D65   D(3,9,18,20)           -0.0001         estimate D2E/DX2                !
 ! D66   D(3,9,18,34)         -179.9954         estimate D2E/DX2                !
 ! D67   D(21,9,18,20)        -180.0            estimate D2E/DX2                !
 ! D68   D(21,9,18,34)           0.0048         estimate D2E/DX2                !
 ! D69   D(3,9,21,13)            0.0096         estimate D2E/DX2                !
 ! D70   D(3,9,21,30)          179.9952         estimate D2E/DX2                !
 ! D71   D(18,9,21,13)        -179.9905         estimate D2E/DX2                !
 ! D72   D(18,9,21,30)          -0.0049         estimate D2E/DX2                !
 ! D73   D(4,10,16,19)           0.0096         estimate D2E/DX2                !
 ! D74   D(4,10,16,32)         180.0            estimate D2E/DX2                !
 ! D75   D(24,10,16,19)       -179.9904         estimate D2E/DX2                !
 ! D76   D(24,10,16,32)          0.0            estimate D2E/DX2                !
 ! D77   D(4,10,24,23)          -0.0048         estimate D2E/DX2                !
 ! D78   D(4,10,24,36)         180.0            estimate D2E/DX2                !
 ! D79   D(16,10,24,23)        179.9952         estimate D2E/DX2                !
 ! D80   D(16,10,24,36)          0.0            estimate D2E/DX2                !
 ! D81   D(5,11,17,22)          -0.0046         estimate D2E/DX2                !
 ! D82   D(5,11,17,29)        -179.9985         estimate D2E/DX2                !
 ! D83   D(20,11,17,22)       -179.9952         estimate D2E/DX2                !
 ! D84   D(20,11,17,29)          0.0109         estimate D2E/DX2                !
 ! D85   D(5,11,20,18)           0.0046         estimate D2E/DX2                !
 ! D86   D(5,11,20,31)         179.9984         estimate D2E/DX2                !
 ! D87   D(17,11,20,18)        179.9952         estimate D2E/DX2                !
 ! D88   D(17,11,20,31)         -0.011          estimate D2E/DX2                !
 ! D89   D(6,12,19,16)           0.0143         estimate D2E/DX2                !
 ! D90   D(6,12,19,28)        -179.994          estimate D2E/DX2                !
 ! D91   D(22,12,19,16)       -179.9953         estimate D2E/DX2                !
 ! D92   D(22,12,19,28)         -0.0036         estimate D2E/DX2                !
 ! D93   D(6,12,22,17)          -0.0047         estimate D2E/DX2                !
 ! D94   D(6,12,22,35)         179.994          estimate D2E/DX2                !
 ! D95   D(19,12,22,17)       -179.9951         estimate D2E/DX2                !
 ! D96   D(19,12,22,35)          0.0036         estimate D2E/DX2                !
 ! D97   D(7,13,21,9)           -0.0145         estimate D2E/DX2                !
 ! D98   D(7,13,21,30)         179.9996         estimate D2E/DX2                !
 ! D99   D(25,13,21,9)         179.9949         estimate D2E/DX2                !
 ! D100  D(25,13,21,30)          0.009          estimate D2E/DX2                !
 ! D101  D(8,14,15,7)            0.0            estimate D2E/DX2                !
 ! D102  D(8,14,15,27)        -179.9975         estimate D2E/DX2                !
 ! D103  D(26,14,15,7)         179.9975         estimate D2E/DX2                !
 ! D104  D(26,14,15,27)          0.0            estimate D2E/DX2                !
 ! D105  D(10,16,19,12)         -0.0145         estimate D2E/DX2                !
 ! D106  D(10,16,19,28)        179.9936         estimate D2E/DX2                !
 ! D107  D(32,16,19,12)        179.9949         estimate D2E/DX2                !
 ! D108  D(32,16,19,28)          0.003          estimate D2E/DX2                !
 ! D109  D(11,17,22,12)          0.0048         estimate D2E/DX2                !
 ! D110  D(11,17,22,35)       -179.994          estimate D2E/DX2                !
 ! D111  D(29,17,22,12)        179.9988         estimate D2E/DX2                !
 ! D112  D(29,17,22,35)          0.0            estimate D2E/DX2                !
 ! D113  D(9,18,20,11)           0.0001         estimate D2E/DX2                !
 ! D114  D(9,18,20,31)        -179.9938         estimate D2E/DX2                !
 ! D115  D(34,18,20,11)        179.9954         estimate D2E/DX2                !
 ! D116  D(34,18,20,31)          0.0015         estimate D2E/DX2                !
 ! D117  D(8,23,24,10)           0.0049         estimate D2E/DX2                !
 ! D118  D(8,23,24,36)        -179.9998         estimate D2E/DX2                !
 ! D119  D(33,23,24,10)       -179.9998         estimate D2E/DX2                !
 ! D120  D(33,23,24,36)         -0.0045         estimate D2E/DX2                !
 --------------------------------------------------------------------------------
 Trust Radius=3.00D-01 FncErr=1.00D-07 GrdErr=1.00D-06
 Number of steps in this run=    216 maximum allowed number of steps=    216.
 GradGradGradGradGradGradGradGradGradGradGradGradGradGradGradGradGradGrad

                          Input orientation:                          
 ---------------------------------------------------------------------
 Center     Atomic      Atomic             Coordinates (Angstroms)
 Number     Number       Type             X           Y           Z
 ---------------------------------------------------------------------
      1          6           0       -0.508300   -1.319800    0.000000
      2          6           0        0.888900   -1.100100   -0.000100
      3          6           0       -1.397200   -0.219700    0.000000
      4          6           0        1.397200    0.219800   -0.000100
      5          6           0       -0.888900    1.100100    0.000000
      6          6           0        0.508300    1.319800    0.000000
      7          6           0       -1.016000   -2.638200    0.000000
      8          6           0        1.776900   -2.199000    0.000000
      9          6           0       -2.793000   -0.439300   -0.000100
     10          6           0        2.792900    0.439200   -0.000100
     11          6           0       -1.776900    2.199000    0.000100
     12          6           0        1.016100    2.638300    0.000000
     13          6           0       -2.402800   -2.838600    0.000000
     14          6           0        1.257100   -3.500100    0.000200
     15          6           0       -0.121800   -3.716900    0.000200
     16          6           0        3.280000    1.753000   -0.000100
     17          6           0       -1.256900    3.500100    0.000100
     18          6           0       -3.659900    0.661500   -0.000100
     19          6           0        2.402800    2.838600    0.000100
     20          6           0       -3.158200    1.964100    0.000000
     21          6           0       -3.280000   -1.753000   -0.000200
     22          6           0        0.121900    3.717000    0.000100
     23          6           0        3.158100   -1.964000    0.000000
     24          6           0        3.659800   -0.661500   -0.000100
     25          1           0       -2.816500   -3.845000    0.000000
     26          1           0        1.921700   -4.361600    0.000400
     27          1           0       -0.490000   -4.740900    0.000400
     28          1           0        2.816600    3.845000    0.000200
     29          1           0       -1.921500    4.361600    0.000200
     30          1           0       -4.350800   -1.946200   -0.000200
     31          1           0       -3.860900    2.794900    0.000100
     32          1           0        4.350800    1.946100   -0.000100
     33          1           0        3.860900   -2.794800    0.000000
     34          1           0       -4.738300    0.516700   -0.000100
     35          1           0        0.490000    4.741000    0.000200
     36          1           0        4.738200   -0.516700   -0.000100
 ---------------------------------------------------------------------
                    Distance matrix (angstroms):
                    1          2          3          4          5
     1  C    0.000000
     2  C    1.414368   0.000000
     3  C    1.414342   2.449767   0.000000
     4  C    2.449755   1.414392   2.828751   0.000000
     5  C    2.449647   2.828684   1.414299   2.449731   0.000000
     6  C    2.828597   2.449647   2.449692   1.414264   1.414368
     7  C    1.412777   2.448345   2.448358   3.740548   3.740460
     8  C    2.448496   1.412843   3.740660   2.448421   4.241527
     9  C    2.448496   3.740728   1.412969   4.241720   2.448540
    10  C    3.740589   2.448400   4.241590   1.412839   3.740647
    11  C    3.740495   4.241527   2.448322   3.740607   1.412843
    12  C    4.241503   3.740563   3.740612   2.448342   2.448486
    13  C    2.428144   3.722589   2.805329   4.877890   4.219627
    14  C    2.805414   2.428080   4.219755   3.722537   5.076136
    15  C    2.428059   2.805202   3.722506   4.219593   4.877697
    16  C    4.877839   3.722572   5.076194   2.428094   4.219716
    17  C    4.877688   5.076051   3.722445   4.219552   2.428049
    18  C    3.722651   4.877993   2.428235   5.076353   2.805497
    19  C    5.076100   4.219627   4.877827   2.805235   3.722589
    20  C    4.219712   5.076253   2.805370   4.877935   2.428213
    21  C    2.805349   4.219716   2.428157   5.076233   3.722572
    22  C    5.076072   4.877780   4.219629   3.722472   2.805331
    23  C    3.722564   2.428084   4.877842   2.805308   5.076112
    24  C    4.219765   2.805398   5.076262   2.428178   4.877900
    25  H    3.421173   4.611341   3.893226   5.854730   5.307509
    26  H    3.893257   3.421119   5.307583   4.611326   6.142446
    27  H    3.421149   3.893172   4.611319   5.307548   5.854605
    28  H    6.142485   5.307546   5.854733   3.893170   4.611421
    29  H    5.854523   6.142354   4.611204   5.307379   3.421059
    30  H    3.893223   5.307574   3.421192   6.142561   4.611366
    31  H    5.307606   6.142607   3.893280   5.854806   3.421276
    32  H    5.854652   4.611300   6.142491   3.421091   5.307558
    33  H    4.611457   3.421227   5.854806   3.893280   6.142544
    34  H    4.611467   5.854863   3.421291   6.142679   3.893358
    35  H    6.142467   5.854705   5.307548   4.611319   3.893266
    36  H    5.307611   3.893259   6.142584   3.421215   5.854767
                    6          7          8          9         10
     6  C    0.000000
     7  C    4.241374   0.000000
     8  C    3.740495   2.827222   0.000000
     9  C    3.740724   2.827170   4.896992   0.000000
    10  C    2.448439   4.896745   2.827075   5.654559   0.000000
    11  C    2.448496   4.896680   5.654370   2.827205   4.896935
    12  C    1.412906   5.654280   4.896763   4.897026   2.827200
    13  C    5.076100   1.401205   4.228354   2.430822   6.143230
    14  C    4.877718   2.431019   1.401090   5.076594   4.228093
    15  C    5.075960   1.401138   2.430860   4.228235   5.076282
    16  C    2.805349   6.143147   4.228193   6.456586   1.401191
    17  C    2.805288   6.143025   6.456290   4.228295   5.076415
    18  C    4.219864   4.228265   6.143391   1.401170   6.456628
    19  C    2.428144   6.456278   5.076334   6.143368   2.430905
    20  C    3.722680   5.076434   6.456517   2.430988   6.143363
    21  C    4.877839   2.430900   5.076530   1.401063   6.456458
    22  C    2.428142   6.456267   6.143133   5.076561   4.228264
    23  C    4.219571   4.228198   1.401049   6.143314   2.430790
    24  C    3.722567   5.076460   2.430888   6.456625   1.401091
    25  H    6.142431   2.167525   4.879410   3.405781   7.058310
    26  H    5.854571   3.405905   2.167442   6.132930   4.879208
    27  H    6.142368   2.167492   3.405891   4.879300   6.132770
    28  H    3.421240   7.531315   6.132774   7.058530   3.405882
    29  H    3.893132   7.058125   7.531244   4.879360   6.132764
    30  H    5.854708   3.405841   6.132912   2.167369   7.531440
    31  H    4.611489   6.132865   7.531522   3.405945   7.058497
    32  H    3.893207   7.058211   4.879223   7.531534   2.167441
    33  H    5.307529   4.879414   2.167495   7.058524   3.405786
    34  H    5.307710   4.879438   7.058531   2.167517   7.531599
    35  H    3.421249   7.531310   7.058308   6.132993   4.879429
    36  H    4.611376   6.132828   3.405794   7.531598   2.167472
                   11         12         13         14         15
    11  C    0.000000
    12  C    2.827337   0.000000
    13  C    5.076334   6.456416   0.000000
    14  C    6.456384   6.143129   3.719200   0.000000
    15  C    6.143063   6.456267   2.444253   1.395839   0.000000
    16  C    5.076530   2.430843   7.305957   5.629137   6.441432
    17  C    1.401164   2.430890   6.441444   7.437943   7.305720
    18  C    2.430966   5.076683   3.719005   6.441724   5.629257
    19  C    4.228354   1.401091   7.438037   6.441409   7.024826
    20  C    1.401131   4.228395   4.861744   7.025123   6.441544
    21  C    4.228193   6.143288   1.395710   4.861855   3.719023
    22  C    2.431001   1.401138   7.024956   7.305834   7.437893
    23  C    6.456376   5.076350   5.629257   2.444055   3.718925
    24  C    6.143303   4.228218   6.441652   3.718954   4.861684
    25  H    6.132757   7.531401   1.088112   4.088175   2.697743
    26  H    7.531342   7.058237   4.584848   1.088060   2.142786
    27  H    7.058210   7.531330   2.697693   2.142882   1.088185
    28  H    4.879504   2.167470   8.480132   7.508830   8.112739
    29  H    2.167429   3.405768   7.216268   8.479966   8.276538
    30  H    4.879308   7.058417   2.142681   5.819205   4.584738
    31  H    2.167522   4.879514   5.819139   8.113011   7.508955
    32  H    6.132917   3.405784   8.276743   6.263551   7.216212
    33  H    7.531456   6.132818   6.263853   2.697633   4.088052
    34  H    3.405881   6.133050   4.088104   7.216613   6.263820
    35  H    3.405965   2.167517   8.112868   8.276725   8.479998
    36  H    7.058439   4.879350   7.509001   4.584619   5.819010
                   16         17         18         19         20
    16  C    0.000000
    17  C    4.861668   0.000000
    18  C    7.025211   3.719148   0.000000
    19  C    1.395710   3.719003   6.441746   0.000000
    20  C    6.441660   2.444225   1.395876   5.629340   0.000000
    21  C    7.438120   5.629209   2.444204   7.305957   3.719095
    22  C    3.718991   1.395756   4.861902   2.444195   3.719101
    23  C    3.718998   7.024857   7.306051   4.861630   7.438119
    24  C    2.444189   6.441495   7.438302   3.718972   7.306086
    25  H    8.276770   7.508851   4.584743   8.480071   5.819141
    26  H    6.263650   8.479966   7.509047   7.216255   8.112944
    27  H    7.508904   8.276607   6.263720   8.112775   7.216392
    28  H    2.142709   4.088075   7.216628   1.088150   6.263866
    29  H    5.818969   1.088060   4.088126   4.584659   2.697672
    30  H    8.480164   6.263737   2.697673   8.276800   4.088122
    31  H    7.216509   2.697800   2.142848   6.263852   1.088125
    32  H    1.088072   5.819039   8.113046   2.142723   7.509022
    33  H    4.584750   8.112807   8.276983   5.819042   8.480265
    34  H    8.113050   4.584847   1.088078   7.509096   2.142821
    35  H    4.088061   2.142777   5.819277   2.697764   4.584816
    36  H    2.697756   7.216364   8.480344   4.088047   8.276926
                   21         22         23         24         25
    21  C    0.000000
    22  C    6.441570   0.000000
    23  C    6.441557   6.441449   0.000000
    24  C    7.025112   5.629209   1.395783   0.000000
    25  H    2.142731   8.112832   6.263705   7.216449   0.000000
    26  H    5.819147   8.276657   2.697623   4.087999   4.766279
    27  H    4.087988   8.480006   4.584736   5.819136   2.493038
    28  H    8.276843   2.697738   5.819029   4.584706   9.532466
    29  H    6.263693   2.142660   8.112678   7.508824   8.255259
    30  H    1.088090   7.216431   7.508921   8.112963   2.441212
    31  H    4.584849   4.088149   8.480182   8.276934   6.721536
    32  H    8.480121   4.584723   4.087960   2.697602   9.214501
    33  H    7.216495   7.508905   1.088190   2.142758   6.759482
    34  H    2.697810   5.819232   8.276896   8.480344   4.766313
    35  H    7.508990   1.088151   7.216355   6.263756   9.200671
    36  H    8.112951   6.263740   2.142754   1.088078   8.255366
                   26         27         28         29         30
    26  H    0.000000
    27  H    2.441345   0.000000
    28  H    8.255249   9.200613   0.000000
    29  H    9.532282   9.214375   4.766180   0.000000
    30  H    6.721489   4.766144   9.214642   6.759426   0.000000
    31  H    9.200758   8.255377   6.759565   2.493155   4.766344
    32  H    6.759261   8.255260   2.441227   6.721338   9.532463
    33  H    2.493062   4.766302   6.721421   9.200555   8.255431
    34  H    8.255508   6.759468   8.255549   4.766300   2.493197
    35  H    9.214504   9.532409   2.493167   2.441163   8.255422
    36  H    4.766123   6.721454   4.766233   8.255266   9.200728
                   31         32         33         34         35
    31  H    0.000000
    32  H    8.255451   0.000000
    33  H    9.532625   4.766145   0.000000
    34  H    2.441316   9.200811   9.214786   0.000000
    35  H    4.766302   4.766261   8.255377   6.721594   0.000000
    36  H    9.214728   2.493083   2.441187   9.532679   6.759483
                   36
    36  H    0.000000
 Stoichiometry    C24H12
 Framework group  C1[X(C24H12)]
 Deg. of freedom   102
 Full point group                 C1      NOp   1
 Largest Abelian subgroup         C1      NOp   1
 Largest concise Abelian subgroup C1      NOp   1
                         Standard orientation:                         
 ---------------------------------------------------------------------
 Center     Atomic      Atomic             Coordinates (Angstroms)
 Number     Number       Type             X           Y           Z
 ---------------------------------------------------------------------
      1          6           0       -0.492902   -1.325642   -0.000003
      2          6           0        0.901645   -1.089687   -0.000103
      3          6           0       -1.394552   -0.235967   -0.000003
      4          6           0        1.394541    0.236042   -0.000103
      5          6           0       -0.901655    1.089663   -0.000003
      6          6           0        0.492892    1.325617   -0.000003
      7          6           0       -0.985216   -2.649864   -0.000003
      8          6           0        1.802380   -2.178172   -0.000003
      9          6           0       -2.787700   -0.471805   -0.000103
     10          6           0        2.787591    0.471679   -0.000103
     11          6           0       -1.802390    2.178148    0.000097
     12          6           0        0.985305    2.649941   -0.000003
     13          6           0       -2.369589   -2.866399   -0.000003
     14          6           0        1.297766   -3.485237    0.000197
     15          6           0       -0.078516   -3.718079    0.000197
     16          6           0        3.259360    1.791062   -0.000103
     17          6           0       -1.297576    3.485215    0.000097
     18          6           0       -3.667360    0.618826   -0.000103
     19          6           0        2.369579    2.866374    0.000097
     20          6           0       -3.180861    1.927180   -0.000003
     21          6           0       -3.259370   -1.791087   -0.000203
     22          6           0        0.078605    3.718155    0.000097
     23          6           0        3.180750   -1.927105   -0.000003
     24          6           0        3.667250   -0.618852   -0.000103
     25          1           0       -2.771542   -3.877548   -0.000003
     26          1           0        1.972352   -4.338940    0.000397
     27          1           0       -0.434767   -4.746297    0.000397
     28          1           0        2.771632    3.877524    0.000197
     29          1           0       -1.972162    4.338918    0.000197
     30          1           0       -4.327848   -1.996742   -0.000203
     31          1           0       -3.893188    2.749741    0.000097
     32          1           0        4.327839    1.996618   -0.000103
     33          1           0        3.893177   -2.749665   -0.000003
     34          1           0       -4.744000    0.461479   -0.000103
     35          1           0        0.434756    4.746372    0.000197
     36          1           0        4.743890   -0.461504   -0.000103
 ---------------------------------------------------------------------
 Rotational constants (GHZ):      0.3385170      0.3384901      0.1692518
 Standard basis: 6-31G(d) (6D, 7F)
 There are   384 symmetry adapted basis functions of A   symmetry.
 Integral buffers will be    131072 words long.
 Raffenetti 2 integral format.
 Two-electron integral symmetry is turned on.
   384 basis functions,   720 primitive gaussians,   384 cartesian basis functions
    78 alpha electrons       78 beta electrons
       nuclear repulsion energy      1842.9306602426 Hartrees.
 NAtoms=   36 NActive=   36 NUniq=   36 SFac= 1.00D+00 NAtFMM=   50 NAOKFM=F Big=F
 One-electron integrals computed using PRISM.
 NBasis=   384 RedAO= T  NBF=   384
 NBsUse=   384 1.00D-06 NBFU=   384
 Harris functional with IExCor=  402 diagonalized for initial guess.
 ExpMin= 1.61D-01 ExpMax= 3.05D+03 ExpMxC= 4.57D+02 IAcc=1 IRadAn=         1 AccDes= 0.00D+00
 HarFok:  IExCor=  402 AccDes= 0.00D+00 IRadAn=         1 IDoV= 1
 ScaDFX=  1.000000  1.000000  1.000000  1.000000
 FoFCou: FMM=F IPFlag=           0 FMFlag=      100000 FMFlg1=           0
         NFxFlg=           0 DoJE=T BraDBF=F KetDBF=T FulRan=T
         Omega=  0.000000  0.000000  1.000000  0.000000  0.000000 ICntrl=     500 IOpCl=  0
         NMat0=    1 NMatS0=    1 NMatT0=    0 NMatD0=    1 NMtDS0=    0 NMtDT0=    0
         I1Cent=           4 NGrid=           0.
 Petite list used in FoFCou.
 Initial guess orbital symmetries:
       Occupied  (A) (A) (A) (A) (A) (A) (A) (A) (A) (A) (A) (A)
                 (A) (A) (A) (A) (A) (A) (A) (A) (A) (A) (A) (A)
                 (A) (A) (A) (A) (A) (A) (A) (A) (A) (A) (A) (A)
                 (A) (A) (A) (A) (A) (A) (A) (A) (A) (A) (A) (A)
                 (A) (A) (A) (A) (A) (A) (A) (A) (A) (A) (A) (A)
                 (A) (A) (A) (A) (A) (A) (A) (A) (A) (A) (A) (A)
                 (A) (A) (A) (A) (A) (A)
       Virtual   (A) (A) (A) (A) (A) (A) (A) (A) (A) (A) (A) (A)
                 (A) (A) (A) (A) (A) (A) (A) (A) (A) (A) (A) (A)
                 (A) (A) (A) (A) (A) (A) (A) (A) (A) (A) (A) (A)
                 (A) (A) (A) (A) (A) (A) (A) (A) (A) (A) (A) (A)
                 (A) (A) (A) (A) (A) (A) (A) (A) (A) (A) (A) (A)
                 (A) (A) (A) (A) (A) (A) (A) (A) (A) (A) (A) (A)
                 (A) (A) (A) (A) (A) (A) (A) (A) (A) (A) (A) (A)
                 (A) (A) (A) (A) (A) (A) (A) (A) (A) (A) (A) (A)
                 (A) (A) (A) (A) (A) (A) (A) (A) (A) (A) (A) (A)
                 (A) (A) (A) (A) (A) (A) (A) (A) (A) (A) (A) (A)
                 (A) (A) (A) (A) (A) (A) (A) (A) (A) (A) (A) (A)
                 (A) (A) (A) (A) (A) (A) (A) (A) (A) (A) (A) (A)
                 (A) (A) (A) (A) (A) (A) (A) (A) (A) (A) (A) (A)
                 (A) (A) (A) (A) (A) (A) (A) (A) (A) (A) (A) (A)
                 (A) (A) (A) (A) (A) (A) (A) (A) (A) (A) (A) (A)
                 (A) (A) (A) (A) (A) (A) (A) (A) (A) (A) (A) (A)
                 (A) (A) (A) (A) (A) (A) (A) (A) (A) (A) (A) (A)
                 (A) (A) (A) (A) (A) (A) (A) (A) (A) (A) (A) (A)
                 (A) (A) (A) (A) (A) (A) (A) (A) (A) (A) (A) (A)
                 (A) (A) (A) (A) (A) (A) (A) (A) (A) (A) (A) (A)
                 (A) (A) (A) (A) (A) (A) (A) (A) (A) (A) (A) (A)
                 (A) (A) (A) (A) (A) (A) (A) (A) (A) (A) (A) (A)
                 (A) (A) (A) (A) (A) (A) (A) (A) (A) (A) (A) (A)
                 (A) (A) (A) (A) (A) (A) (A) (A) (A) (A) (A) (A)
                 (A) (A) (A) (A) (A) (A) (A) (A) (A) (A) (A) (A)
                 (A) (A) (A) (A) (A) (A)
 The electronic state of the initial guess is 1-A.
 Requested convergence on RMS density matrix=1.00D-08 within  64 cycles.
 Requested convergence on MAX density matrix=1.00D-06.
 Requested convergence on             energy=1.00D-06.
 No special actions if energy rises.
 Integral accuracy reduced to 1.0D-05 until final iterations.
 Initial convergence to 1.0D-05 achieved.  Increase integral accuracy.
 SCF Done:  E(RB3LYP) =  -921.888196018     A.U. after   14 cycles
             Convg  =    0.3132D-08             -V/T =  2.0090
 QCSCF skips out because SCF is already converged.

 **********************************************************************

            Population analysis using the SCF density.

 **********************************************************************

 Orbital symmetries:
       Occupied  (A) (A) (A) (A) (A) (A) (A) (A) (A) (A) (A) (A)
                 (A) (A) (A) (A) (A) (A) (A) (A) (A) (A) (A) (A)
                 (A) (A) (A) (A) (A) (A) (A) (A) (A) (A) (A) (A)
                 (A) (A) (A) (A) (A) (A) (A) (A) (A) (A) (A) (A)
                 (A) (A) (A) (A) (A) (A) (A) (A) (A) (A) (A) (A)
                 (A) (A) (A) (A) (A) (A) (A) (A) (A) (A) (A) (A)
                 (A) (A) (A) (A) (A) (A)
       Virtual   (A) (A) (A) (A) (A) (A) (A) (A) (A) (A) (A) (A)
                 (A) (A) (A) (A) (A) (A) (A) (A) (A) (A) (A) (A)
                 (A) (A) (A) (A) (A) (A) (A) (A) (A) (A) (A) (A)
                 (A) (A) (A) (A) (A) (A) (A) (A) (A) (A) (A) (A)
                 (A) (A) (A) (A) (A) (A) (A) (A) (A) (A) (A) (A)
                 (A) (A) (A) (A) (A) (A) (A) (A) (A) (A) (A) (A)
                 (A) (A) (A) (A) (A) (A) (A) (A) (A) (A) (A) (A)
                 (A) (A) (A) (A) (A) (A) (A) (A) (A) (A) (A) (A)
                 (A) (A) (A) (A) (A) (A) (A) (A) (A) (A) (A) (A)
                 (A) (A) (A) (A) (A) (A) (A) (A) (A) (A) (A) (A)
                 (A) (A) (A) (A) (A) (A) (A) (A) (A) (A) (A) (A)
                 (A) (A) (A) (A) (A) (A) (A) (A) (A) (A) (A) (A)
                 (A) (A) (A) (A) (A) (A) (A) (A) (A) (A) (A) (A)
                 (A) (A) (A) (A) (A) (A) (A) (A) (A) (A) (A) (A)
                 (A) (A) (A) (A) (A) (A) (A) (A) (A) (A) (A) (A)
                 (A) (A) (A) (A) (A) (A) (A) (A) (A) (A) (A) (A)
                 (A) (A) (A) (A) (A) (A) (A) (A) (A) (A) (A) (A)
                 (A) (A) (A) (A) (A) (A) (A) (A) (A) (A) (A) (A)
                 (A) (A) (A) (A) (A) (A) (A) (A) (A) (A) (A) (A)
                 (A) (A) (A) (A) (A) (A) (A) (A) (A) (A) (A) (A)
                 (A) (A) (A) (A) (A) (A) (A) (A) (A) (A) (A) (A)
                 (A) (A) (A) (A) (A) (A) (A) (A) (A) (A) (A) (A)
                 (A) (A) (A) (A) (A) (A) (A) (A) (A) (A) (A) (A)
                 (A) (A) (A) (A) (A) (A) (A) (A) (A) (A) (A) (A)
                 (A) (A) (A) (A) (A) (A) (A) (A) (A) (A) (A) (A)
                 (A) (A) (A) (A) (A) (A)
 The electronic state is 1-A.
 Alpha  occ. eigenvalues --  -10.19540 -10.19518 -10.19517 -10.19471 -10.19471
 Alpha  occ. eigenvalues --  -10.19449 -10.19372 -10.19371 -10.19371 -10.19369
 Alpha  occ. eigenvalues --  -10.19369 -10.19367 -10.19091 -10.19089 -10.19088
 Alpha  occ. eigenvalues --  -10.19087 -10.19086 -10.19085 -10.19035 -10.19034
 Alpha  occ. eigenvalues --  -10.19033 -10.19032 -10.19031 -10.19030  -0.90842
 Alpha  occ. eigenvalues --   -0.87076  -0.87076  -0.82253  -0.82251  -0.80615
 Alpha  occ. eigenvalues --   -0.76842  -0.76516  -0.74142  -0.74140  -0.70806
 Alpha  occ. eigenvalues --   -0.70804  -0.63614  -0.63613  -0.63007  -0.63006
 Alpha  occ. eigenvalues --   -0.62091  -0.56116  -0.55453  -0.53766  -0.53764
 Alpha  occ. eigenvalues --   -0.53480  -0.51186  -0.47410  -0.47408  -0.45572
 Alpha  occ. eigenvalues --   -0.45570  -0.45154  -0.45153  -0.42722  -0.42314
 Alpha  occ. eigenvalues --   -0.42080  -0.42079  -0.41400  -0.39173  -0.39172
 Alpha  occ. eigenvalues --   -0.38354  -0.38354  -0.37878  -0.37726  -0.36020
 Alpha  occ. eigenvalues --   -0.36018  -0.34867  -0.32824  -0.32823  -0.31547
 Alpha  occ. eigenvalues --   -0.31544  -0.31240  -0.26953  -0.26076  -0.24664
 Alpha  occ. eigenvalues --   -0.24662  -0.19764  -0.19762
 Alpha virt. eigenvalues --   -0.05216  -0.05214  -0.01180  -0.01178   0.01618
 Alpha virt. eigenvalues --    0.01980   0.07049   0.09606   0.10015   0.10016
 Alpha virt. eigenvalues --    0.10916   0.10916   0.12539   0.12540   0.14547
 Alpha virt. eigenvalues --    0.15060   0.16716   0.16717   0.18743   0.18745
 Alpha virt. eigenvalues --    0.18956   0.18958   0.20903   0.22204   0.24843
 Alpha virt. eigenvalues --    0.26232   0.26235   0.28003   0.28004   0.28313
 Alpha virt. eigenvalues --    0.29184   0.29186   0.29484   0.29488   0.31114
 Alpha virt. eigenvalues --    0.34484   0.34485   0.36372   0.36781   0.36785
 Alpha virt. eigenvalues --    0.42016   0.45526   0.46406   0.47014   0.47018
 Alpha virt. eigenvalues --    0.47384   0.49610   0.51766   0.51767   0.51874
 Alpha virt. eigenvalues --    0.51875   0.51916   0.52034   0.53544   0.54770
 Alpha virt. eigenvalues --    0.54771   0.55867   0.55868   0.56246   0.56246
 Alpha virt. eigenvalues --    0.56723   0.57574   0.57578   0.58241   0.58981
 Alpha virt. eigenvalues --    0.58984   0.59157   0.59225   0.60105   0.60173
 Alpha virt. eigenvalues --    0.60176   0.60472   0.60472   0.61337   0.62436
 Alpha virt. eigenvalues --    0.62437   0.62776   0.63033   0.63034   0.63655
 Alpha virt. eigenvalues --    0.63656   0.64268   0.64269   0.68640   0.69576
 Alpha virt. eigenvalues --    0.70436   0.71041   0.71043   0.71812   0.71813
 Alpha virt. eigenvalues --    0.76840   0.78772   0.80940   0.80941   0.81883
 Alpha virt. eigenvalues --    0.81886   0.82401   0.82404   0.83295   0.85612
 Alpha virt. eigenvalues --    0.85649   0.85764   0.85767   0.86078   0.86274
 Alpha virt. eigenvalues --    0.86275   0.89318   0.89320   0.91018   0.93592
 Alpha virt. eigenvalues --    0.93593   0.95290   0.95293   0.96577   0.96579
 Alpha virt. eigenvalues --    0.97544   1.00145   1.00148   1.01878   1.01881
 Alpha virt. eigenvalues --    1.02559   1.02754   1.02770   1.04014   1.06361
 Alpha virt. eigenvalues --    1.06364   1.10805   1.15821   1.16400   1.16401
 Alpha virt. eigenvalues --    1.17319   1.17323   1.18073   1.20499   1.20524
 Alpha virt. eigenvalues --    1.23685   1.23696   1.24877   1.24878   1.26986
 Alpha virt. eigenvalues --    1.26987   1.27008   1.27011   1.30350   1.30351
 Alpha virt. eigenvalues --    1.31647   1.32847   1.35472   1.40647   1.40649
 Alpha virt. eigenvalues --    1.40677   1.40679   1.42128   1.43531   1.44161
 Alpha virt. eigenvalues --    1.45937   1.47764   1.47765   1.47878   1.47879
 Alpha virt. eigenvalues --    1.48039   1.48691   1.48692   1.50206   1.52731
 Alpha virt. eigenvalues --    1.52739   1.53570   1.53574   1.62586   1.62590
 Alpha virt. eigenvalues --    1.65848   1.65854   1.68281   1.71920   1.72517
 Alpha virt. eigenvalues --    1.72938   1.72991   1.78185   1.78187   1.78627
 Alpha virt. eigenvalues --    1.78632   1.79712   1.79713   1.83706   1.85011
 Alpha virt. eigenvalues --    1.85014   1.87466   1.87469   1.89633   1.90175
 Alpha virt. eigenvalues --    1.91981   1.91984   1.93306   1.95298   1.95301
 Alpha virt. eigenvalues --    1.96111   1.96119   1.97249   1.97255   1.97633
 Alpha virt. eigenvalues --    1.98378   1.99205   2.02176   2.02178   2.02985
 Alpha virt. eigenvalues --    2.02988   2.04923   2.05282   2.06081   2.08734
 Alpha virt. eigenvalues --    2.08737   2.14373   2.14377   2.14972   2.14976
 Alpha virt. eigenvalues --    2.24006   2.24013   2.25260   2.25268   2.25370
 Alpha virt. eigenvalues --    2.25373   2.25446   2.25450   2.28276   2.28280
 Alpha virt. eigenvalues --    2.29659   2.30300   2.33078   2.34011   2.35648
 Alpha virt. eigenvalues --    2.35649   2.36829   2.36833   2.36977   2.36982
 Alpha virt. eigenvalues --    2.40956   2.40959   2.42136   2.42364   2.46000
 Alpha virt. eigenvalues --    2.46010   2.48748   2.49354   2.58354   2.58357
 Alpha virt. eigenvalues --    2.63051   2.63056   2.64628   2.64629   2.70300
 Alpha virt. eigenvalues --    2.70305   2.72712   2.73483   2.73784   2.74771
 Alpha virt. eigenvalues --    2.75962   2.78809   2.78815   2.80555   2.84357
 Alpha virt. eigenvalues --    2.84362   2.84712   2.84713   2.85805   2.85811
 Alpha virt. eigenvalues --    2.91121   2.94624   2.94625   2.98883   3.02730
 Alpha virt. eigenvalues --    3.02794   3.02799   3.06967   3.08231   3.08236
 Alpha virt. eigenvalues --    3.25978   3.35335   3.35339   3.43536   3.43542
 Alpha virt. eigenvalues --    3.62196   3.68181   4.09538   4.09668   4.09669
 Alpha virt. eigenvalues --    4.10778   4.10781   4.10974   4.11356   4.15781
 Alpha virt. eigenvalues --    4.15783   4.15790   4.15792   4.17785   4.26853
 Alpha virt. eigenvalues --    4.26854   4.34469   4.35424   4.35425   4.40659
 Alpha virt. eigenvalues --    4.48650   4.53741   4.53743   4.76883   4.76884
 Alpha virt. eigenvalues --    5.05495
          Condensed to atoms (all electrons):
              1          2          3          4          5          6
     1  C    5.512415   0.185849   0.185396  -0.015635  -0.015641  -0.109290
     2  C    0.185849   5.512557  -0.015664   0.185859  -0.109290  -0.015668
     3  C    0.185396  -0.015664   5.512708  -0.109329   0.185798  -0.015657
     4  C   -0.015635   0.185859  -0.109329   5.512566  -0.015673   0.185371
     5  C   -0.015641  -0.109290   0.185798  -0.015673   5.512555   0.185829
     6  C   -0.109290  -0.015668  -0.015657   0.185371   0.185829   5.512525
     7  C    0.416293  -0.053800  -0.053799   0.017508   0.017518  -0.001103
     8  C   -0.053803   0.416094   0.017510  -0.053820  -0.001102   0.017511
     9  C   -0.053734   0.017502   0.416347  -0.001102  -0.053860   0.017488
    10  C    0.017501  -0.053797  -0.001103   0.416342   0.017504  -0.053804
    11  C    0.017508  -0.001100  -0.053815   0.017508   0.416083  -0.053779
    12  C   -0.001103   0.017510   0.017503  -0.053760  -0.053766   0.416293
    13  C    0.024491   0.022865  -0.098639  -0.000103  -0.003089  -0.000014
    14  C   -0.098674   0.024521  -0.003090   0.022883  -0.000014  -0.000103
    15  C    0.024446  -0.098660   0.022875  -0.003090  -0.000104  -0.000014
    16  C   -0.000103   0.022871  -0.000014   0.024580  -0.003090  -0.098679
    17  C   -0.000104  -0.000014   0.022886  -0.003092   0.024579  -0.098678
    18  C    0.022874  -0.000103   0.024454  -0.000014  -0.098649  -0.003089
    19  C   -0.000014  -0.003088  -0.000103  -0.098679   0.022871   0.024504
    20  C   -0.003087  -0.000014  -0.098658  -0.000103   0.024464   0.022874
    21  C   -0.098677  -0.003090   0.024544  -0.000014   0.022879  -0.000102
    22  C   -0.000013  -0.000104  -0.003091   0.022882  -0.098665   0.024439
    23  C    0.022885   0.024532  -0.000103  -0.098674  -0.000014  -0.003090
    24  C   -0.003090  -0.098668  -0.000014   0.024422  -0.000103   0.022881
    25  H    0.002732  -0.000250   0.001596   0.000003   0.000034  -0.000001
    26  H    0.001597   0.002729   0.000034  -0.000250  -0.000001   0.000003
    27  H    0.002732   0.001597  -0.000250   0.000034   0.000003  -0.000001
    28  H   -0.000001   0.000034   0.000003   0.001596  -0.000250   0.002732
    29  H    0.000003  -0.000001  -0.000250   0.000034   0.002731   0.001597
    30  H    0.001596   0.000034   0.002732  -0.000001  -0.000250   0.000003
    31  H    0.000034  -0.000001   0.001596   0.000003   0.002730  -0.000250
    32  H    0.000003  -0.000250  -0.000001   0.002732   0.000034   0.001597
    33  H   -0.000250   0.002729   0.000003   0.001597  -0.000001   0.000034
    34  H   -0.000250   0.000003   0.002732  -0.000001   0.001596   0.000034
    35  H   -0.000001   0.000003   0.000034  -0.000250   0.001595   0.002733
    36  H    0.000034   0.001596  -0.000001   0.002731   0.000003  -0.000250
              7          8          9         10         11         12
     1  C    0.416293  -0.053803  -0.053734   0.017501   0.017508  -0.001103
     2  C   -0.053800   0.416094   0.017502  -0.053797  -0.001100   0.017510
     3  C   -0.053799   0.017510   0.416347  -0.001103  -0.053815   0.017503
     4  C    0.017508  -0.053820  -0.001102   0.416342   0.017508  -0.053760
     5  C    0.017518  -0.001102  -0.053860   0.017504   0.416083  -0.053766
     6  C   -0.001103   0.017511   0.017488  -0.053804  -0.053779   0.416293
     7  C    4.809167  -0.050859  -0.050856  -0.000141  -0.000142  -0.000004
     8  C   -0.050859   4.809035  -0.000141  -0.050845  -0.000004  -0.000142
     9  C   -0.050856  -0.000141   4.808850  -0.000004  -0.050816  -0.000141
    10  C   -0.000141  -0.050845  -0.000004   4.809030  -0.000142  -0.050850
    11  C   -0.000142  -0.000004  -0.050816  -0.000142   4.809096  -0.050851
    12  C   -0.000004  -0.000142  -0.000141  -0.050850  -0.050851   4.809009
    13  C    0.399909  -0.000856   0.023445  -0.000002   0.000113   0.000000
    14  C    0.023473   0.399835   0.000113  -0.000857   0.000000  -0.000002
    15  C    0.399796   0.023470  -0.000855   0.000113  -0.000002   0.000000
    16  C   -0.000002  -0.000856   0.000000   0.399879   0.000113   0.023483
    17  C   -0.000002   0.000000  -0.000854   0.000113   0.399788   0.023500
    18  C   -0.000857  -0.000002   0.399833   0.000000   0.023482   0.000113
    19  C    0.000000   0.000113  -0.000002   0.023429  -0.000856   0.399912
    20  C    0.000113   0.000000   0.023437  -0.000002   0.399920  -0.000857
    21  C    0.023461   0.000113   0.399896   0.000000  -0.000858  -0.000002
    22  C    0.000000  -0.000002   0.000113  -0.000855   0.023453   0.399772
    23  C   -0.000857   0.399860  -0.000002   0.023485   0.000000   0.000113
    24  C    0.000113   0.023473   0.000000   0.399821  -0.000002  -0.000857
    25  H   -0.035778   0.000011   0.001464   0.000000  -0.000001   0.000000
    26  H    0.001462  -0.035800  -0.000001   0.000011   0.000000   0.000000
    27  H   -0.035772   0.001462   0.000011  -0.000001   0.000000   0.000000
    28  H    0.000000  -0.000001   0.000000   0.001464   0.000011  -0.035785
    29  H    0.000000   0.000000   0.000011  -0.000001  -0.035803   0.001463
    30  H    0.001464  -0.000001  -0.035792   0.000000   0.000011   0.000000
    31  H   -0.000001   0.000000   0.001461   0.000000  -0.035784   0.000011
    32  H    0.000000   0.000011   0.000000  -0.035792  -0.000001   0.001463
    33  H    0.000011  -0.035794   0.000000   0.001461   0.000000  -0.000001
    34  H    0.000011   0.000000  -0.035775   0.000000   0.001461  -0.000001
    35  H    0.000000   0.000000  -0.000001   0.000011   0.001464  -0.035778
    36  H   -0.000001   0.001461   0.000000  -0.035773   0.000000   0.000011
             13         14         15         16         17         18
     1  C    0.024491  -0.098674   0.024446  -0.000103  -0.000104   0.022874
     2  C    0.022865   0.024521  -0.098660   0.022871  -0.000014  -0.000103
     3  C   -0.098639  -0.003090   0.022875  -0.000014   0.022886   0.024454
     4  C   -0.000103   0.022883  -0.003090   0.024580  -0.003092  -0.000014
     5  C   -0.003089  -0.000014  -0.000104  -0.003090   0.024579  -0.098649
     6  C   -0.000014  -0.000103  -0.000014  -0.098679  -0.098678  -0.003089
     7  C    0.399909   0.023473   0.399796  -0.000002  -0.000002  -0.000857
     8  C   -0.000856   0.399835   0.023470  -0.000856   0.000000  -0.000002
     9  C    0.023445   0.000113  -0.000855   0.000000  -0.000854   0.399833
    10  C   -0.000002  -0.000857   0.000113   0.399879   0.000113   0.000000
    11  C    0.000113   0.000000  -0.000002   0.000113   0.399788   0.023482
    12  C    0.000000  -0.000002   0.000000   0.023483   0.023500   0.000113
    13  C    5.244709   0.010385  -0.121614   0.000000   0.000001   0.010392
    14  C    0.010385   5.244884   0.404239  -0.000022   0.000000   0.000001
    15  C   -0.121614   0.404239   5.244917   0.000001   0.000000  -0.000022
    16  C    0.000000  -0.000022   0.000001   5.244760  -0.000498   0.000000
    17  C    0.000001   0.000000   0.000000  -0.000498   5.244787   0.010384
    18  C    0.010392   0.000001  -0.000022   0.000000   0.010384   5.244922
    19  C    0.000000   0.000001   0.000000   0.404246   0.010391   0.000001
    20  C   -0.000498   0.000000   0.000001   0.000001  -0.121646   0.404221
    21  C    0.404269  -0.000498   0.010389   0.000000  -0.000022  -0.121681
    22  C    0.000000   0.000000   0.000000   0.010392   0.404274  -0.000498
    23  C   -0.000022  -0.121696   0.010390   0.010389   0.000000   0.000000
    24  C    0.000001   0.010392  -0.000498  -0.121661   0.000001   0.000000
    25  H    0.351909   0.000253  -0.006785   0.000000   0.000000  -0.000240
    26  H   -0.000239   0.351915  -0.036683   0.000000   0.000000   0.000000
    27  H   -0.006788  -0.036682   0.351888   0.000000   0.000000   0.000000
    28  H    0.000000   0.000000   0.000000  -0.036691   0.000254   0.000000
    29  H    0.000000   0.000000   0.000000   0.000003   0.351900   0.000253
    30  H   -0.036689   0.000003  -0.000240   0.000000   0.000000  -0.006785
    31  H    0.000003   0.000000   0.000000   0.000000  -0.006784  -0.036683
    32  H    0.000000   0.000000   0.000000   0.351914   0.000003   0.000000
    33  H    0.000000  -0.006786   0.000253  -0.000240   0.000000   0.000000
    34  H    0.000253   0.000000   0.000000   0.000000  -0.000239   0.351909
    35  H    0.000000   0.000000   0.000000   0.000253  -0.036687   0.000003
    36  H    0.000000  -0.000240   0.000003  -0.006789   0.000000   0.000000
             19         20         21         22         23         24
     1  C   -0.000014  -0.003087  -0.098677  -0.000013   0.022885  -0.003090
     2  C   -0.003088  -0.000014  -0.003090  -0.000104   0.024532  -0.098668
     3  C   -0.000103  -0.098658   0.024544  -0.003091  -0.000103  -0.000014
     4  C   -0.098679  -0.000103  -0.000014   0.022882  -0.098674   0.024422
     5  C    0.022871   0.024464   0.022879  -0.098665  -0.000014  -0.000103
     6  C    0.024504   0.022874  -0.000102   0.024439  -0.003090   0.022881
     7  C    0.000000   0.000113   0.023461   0.000000  -0.000857   0.000113
     8  C    0.000113   0.000000   0.000113  -0.000002   0.399860   0.023473
     9  C   -0.000002   0.023437   0.399896   0.000113  -0.000002   0.000000
    10  C    0.023429  -0.000002   0.000000  -0.000855   0.023485   0.399821
    11  C   -0.000856   0.399920  -0.000858   0.023453   0.000000  -0.000002
    12  C    0.399912  -0.000857  -0.000002   0.399772   0.000113  -0.000857
    13  C    0.000000  -0.000498   0.404269   0.000000  -0.000022   0.000001
    14  C    0.000001   0.000000  -0.000498   0.000000  -0.121696   0.010392
    15  C    0.000000   0.000001   0.010389   0.000000   0.010390  -0.000498
    16  C    0.404246   0.000001   0.000000   0.010392   0.010389  -0.121661
    17  C    0.010391  -0.121646  -0.000022   0.404274   0.000000   0.000001
    18  C    0.000001   0.404221  -0.121681  -0.000498   0.000000   0.000000
    19  C    5.244830  -0.000022   0.000000  -0.121658  -0.000498   0.010394
    20  C   -0.000022   5.244851   0.010389   0.010387   0.000000   0.000000
    21  C    0.000000   0.010389   5.244817   0.000001   0.000001   0.000000
    22  C   -0.121658   0.010387   0.000001   5.244906   0.000001  -0.000022
    23  C   -0.000498   0.000000   0.000001   0.000001   5.244971   0.404200
    24  C    0.010394   0.000000   0.000000  -0.000022   0.404200   5.244915
    25  H    0.000000   0.000003  -0.036686   0.000000   0.000000   0.000000
    26  H    0.000000   0.000000   0.000003   0.000000  -0.006780   0.000253
    27  H    0.000000   0.000000   0.000253   0.000000  -0.000240   0.000003
    28  H    0.351910   0.000000   0.000000  -0.006786   0.000003  -0.000240
    29  H   -0.000240  -0.006781   0.000000  -0.036690   0.000000   0.000000
    30  H    0.000000   0.000253   0.351915   0.000000   0.000000   0.000000
    31  H    0.000000   0.351902  -0.000239   0.000253   0.000000   0.000000
    32  H   -0.036685   0.000000   0.000000  -0.000240   0.000253  -0.006784
    33  H    0.000003   0.000000   0.000000   0.000000   0.351887  -0.036680
    34  H    0.000000  -0.036688  -0.006786   0.000003   0.000000   0.000000
    35  H   -0.006787  -0.000239   0.000000   0.351905   0.000000   0.000000
    36  H    0.000253   0.000000   0.000000   0.000000  -0.036685   0.351915
             25         26         27         28         29         30
     1  C    0.002732   0.001597   0.002732  -0.000001   0.000003   0.001596
     2  C   -0.000250   0.002729   0.001597   0.000034  -0.000001   0.000034
     3  C    0.001596   0.000034  -0.000250   0.000003  -0.000250   0.002732
     4  C    0.000003  -0.000250   0.000034   0.001596   0.000034  -0.000001
     5  C    0.000034  -0.000001   0.000003  -0.000250   0.002731  -0.000250
     6  C   -0.000001   0.000003  -0.000001   0.002732   0.001597   0.000003
     7  C   -0.035778   0.001462  -0.035772   0.000000   0.000000   0.001464
     8  C    0.000011  -0.035800   0.001462  -0.000001   0.000000  -0.000001
     9  C    0.001464  -0.000001   0.000011   0.000000   0.000011  -0.035792
    10  C    0.000000   0.000011  -0.000001   0.001464  -0.000001   0.000000
    11  C   -0.000001   0.000000   0.000000   0.000011  -0.035803   0.000011
    12  C    0.000000   0.000000   0.000000  -0.035785   0.001463   0.000000
    13  C    0.351909  -0.000239  -0.006788   0.000000   0.000000  -0.036689
    14  C    0.000253   0.351915  -0.036682   0.000000   0.000000   0.000003
    15  C   -0.006785  -0.036683   0.351888   0.000000   0.000000  -0.000240
    16  C    0.000000   0.000000   0.000000  -0.036691   0.000003   0.000000
    17  C    0.000000   0.000000   0.000000   0.000254   0.351900   0.000000
    18  C   -0.000240   0.000000   0.000000   0.000000   0.000253  -0.006785
    19  C    0.000000   0.000000   0.000000   0.351910  -0.000240   0.000000
    20  C    0.000003   0.000000   0.000000   0.000000  -0.006781   0.000253
    21  C   -0.036686   0.000003   0.000253   0.000000   0.000000   0.351915
    22  C    0.000000   0.000000   0.000000  -0.006786  -0.036690   0.000000
    23  C    0.000000  -0.006780  -0.000240   0.000003   0.000000   0.000000
    24  C    0.000000   0.000253   0.000003  -0.000240   0.000000   0.000000
    25  H    0.589697  -0.000012   0.006254   0.000000   0.000000  -0.004031
    26  H   -0.000012   0.589691  -0.004027   0.000000   0.000000   0.000000
    27  H    0.006254  -0.004027   0.589713   0.000000   0.000000  -0.000012
    28  H    0.000000   0.000000   0.000000   0.589715  -0.000012   0.000000
    29  H    0.000000   0.000000   0.000000  -0.000012   0.589744   0.000000
    30  H   -0.004031   0.000000  -0.000012   0.000000   0.000000   0.589713
    31  H    0.000000   0.000000   0.000000   0.000000   0.006253  -0.000012
    32  H    0.000000   0.000000   0.000000  -0.004032   0.000000   0.000000
    33  H    0.000000   0.006254  -0.000012   0.000000   0.000000   0.000000
    34  H   -0.000012   0.000000   0.000000   0.000000  -0.000012   0.006253
    35  H    0.000000   0.000000   0.000000   0.006253  -0.004031   0.000000
    36  H    0.000000  -0.000012   0.000000  -0.000012   0.000000   0.000000
             31         32         33         34         35         36
     1  C    0.000034   0.000003  -0.000250  -0.000250  -0.000001   0.000034
     2  C   -0.000001  -0.000250   0.002729   0.000003   0.000003   0.001596
     3  C    0.001596  -0.000001   0.000003   0.002732   0.000034  -0.000001
     4  C    0.000003   0.002732   0.001597  -0.000001  -0.000250   0.002731
     5  C    0.002730   0.000034  -0.000001   0.001596   0.001595   0.000003
     6  C   -0.000250   0.001597   0.000034   0.000034   0.002733  -0.000250
     7  C   -0.000001   0.000000   0.000011   0.000011   0.000000  -0.000001
     8  C    0.000000   0.000011  -0.035794   0.000000   0.000000   0.001461
     9  C    0.001461   0.000000   0.000000  -0.035775  -0.000001   0.000000
    10  C    0.000000  -0.035792   0.001461   0.000000   0.000011  -0.035773
    11  C   -0.035784  -0.000001   0.000000   0.001461   0.001464   0.000000
    12  C    0.000011   0.001463  -0.000001  -0.000001  -0.035778   0.000011
    13  C    0.000003   0.000000   0.000000   0.000253   0.000000   0.000000
    14  C    0.000000   0.000000  -0.006786   0.000000   0.000000  -0.000240
    15  C    0.000000   0.000000   0.000253   0.000000   0.000000   0.000003
    16  C    0.000000   0.351914  -0.000240   0.000000   0.000253  -0.006789
    17  C   -0.006784   0.000003   0.000000  -0.000239  -0.036687   0.000000
    18  C   -0.036683   0.000000   0.000000   0.351909   0.000003   0.000000
    19  C    0.000000  -0.036685   0.000003   0.000000  -0.006787   0.000253
    20  C    0.351902   0.000000   0.000000  -0.036688  -0.000239   0.000000
    21  C   -0.000239   0.000000   0.000000  -0.006786   0.000000   0.000000
    22  C    0.000253  -0.000240   0.000000   0.000003   0.351905   0.000000
    23  C    0.000000   0.000253   0.351887   0.000000   0.000000  -0.036685
    24  C    0.000000  -0.006784  -0.036680   0.000000   0.000000   0.351915
    25  H    0.000000   0.000000   0.000000  -0.000012   0.000000   0.000000
    26  H    0.000000   0.000000   0.006254   0.000000   0.000000  -0.000012
    27  H    0.000000   0.000000  -0.000012   0.000000   0.000000   0.000000
    28  H    0.000000  -0.004032   0.000000   0.000000   0.006253  -0.000012
    29  H    0.006253   0.000000   0.000000  -0.000012  -0.004031   0.000000
    30  H   -0.000012   0.000000   0.000000   0.006253   0.000000   0.000000
    31  H    0.589683   0.000000   0.000000  -0.004025  -0.000012   0.000000
    32  H    0.000000   0.589714  -0.000012   0.000000  -0.000012   0.006253
    33  H    0.000000  -0.000012   0.589725   0.000000   0.000000  -0.004027
    34  H   -0.004025   0.000000   0.000000   0.589684   0.000000   0.000000
    35  H   -0.000012  -0.000012   0.000000   0.000000   0.589700   0.000000
    36  H    0.000000   0.006253  -0.004027   0.000000   0.000000   0.589678
 Mulliken atomic charges:
              1
     1  C    0.015081
     2  C    0.014675
     3  C    0.014829
     4  C    0.014937
     5  C    0.014755
     6  C    0.015125
     7  C    0.173672
     8  C    0.174067
     9  C    0.173965
    10  C    0.173803
    11  C    0.173944
    12  C    0.173743
    13  C   -0.224192
    14  C   -0.224237
    15  C   -0.224216
    16  C   -0.224241
    17  C   -0.224239
    18  C   -0.224221
    19  C   -0.224227
    20  C   -0.224222
    21  C   -0.224275
    22  C   -0.224158
    23  C   -0.224311
    24  C   -0.224165
    25  H    0.129839
    26  H    0.129854
    27  H    0.129834
    28  H    0.129834
    29  H    0.129829
    30  H    0.129836
    31  H    0.129863
    32  H    0.129832
    33  H    0.129845
    34  H    0.129849
    35  H    0.129844
    36  H    0.129851
 Sum of Mulliken atomic charges =   0.00000
 Mulliken charges with hydrogens summed into heavy atoms:
              1
     1  C    0.015081
     2  C    0.014675
     3  C    0.014829
     4  C    0.014937
     5  C    0.014755
     6  C    0.015125
     7  C    0.173672
     8  C    0.174067
     9  C    0.173965
    10  C    0.173803
    11  C    0.173944
    12  C    0.173743
    13  C   -0.094353
    14  C   -0.094383
    15  C   -0.094382
    16  C   -0.094409
    17  C   -0.094410
    18  C   -0.094372
    19  C   -0.094392
    20  C   -0.094359
    21  C   -0.094439
    22  C   -0.094314
    23  C   -0.094466
    24  C   -0.094314
 Sum of Mulliken charges with hydrogens summed into heavy atoms =   0.00000
 Electronic spatial extent (au):  <R**2>=           6092.8580
 Charge=              0.0000 electrons
 Dipole moment (field-independent basis, Debye):
    X=              0.0000    Y=             -0.0001    Z=              0.0004  Tot=              0.0004
 Quadrupole moment (field-independent basis, Debye-Ang):
   XX=           -116.7108   YY=           -116.7166   ZZ=           -141.0214
   XY=             -0.0005   XZ=             -0.0001   YZ=              0.0000
 Traceless Quadrupole moment (field-independent basis, Debye-Ang):
   XX=              8.1055   YY=              8.0997   ZZ=            -16.2051
   XY=             -0.0005   XZ=             -0.0001   YZ=              0.0000
 Octapole moment (field-independent basis, Debye-Ang**2):
  XXX=              0.0004  YYY=              0.0003  ZZZ=              0.0003  XYY=             -0.0002
  XXY=             -0.0021  XXZ=              0.0008  XZZ=              0.0013  YZZ=             -0.0002
  YYZ=              0.0114  XYZ=             -0.0018
 Hexadecapole moment (field-independent basis, Debye-Ang**3):
 XXXX=          -3761.0323 YYYY=          -3760.9061 ZZZZ=           -146.0881 XXXY=             -0.0190
 XXXZ=             -0.0085 YYYX=              0.0026 YYYZ=             -0.0082 ZZZX=             -0.0075
 ZZZY=              0.0009 XXYY=          -1253.6651 XXZZ=           -785.4520 YYZZ=           -785.4003
 XXYZ=              0.0053 YYXZ=              0.0015 ZZXY=              0.0022
 N-N= 1.842930660243D+03 E-N=-5.821199851302D+03  KE= 9.136773896323D+02
 Calling FoFJK, ICntrl=      2127 FMM=F ISym2X=0 I1Cent= 0 IOpClX= 0 NMat=1 NMatS=1 NMatT=0.
 ***** Axes restored to original set *****
 -------------------------------------------------------------------
 Center     Atomic                   Forces (Hartrees/Bohr)
 Number     Number              X              Y              Z
 -------------------------------------------------------------------
      1        6           0.000525240    0.001262292   -0.000015344
      2        6          -0.000868251    0.001207425    0.000014713
      3        6           0.001323440    0.000250908   -0.000009499
      4        6          -0.001399336   -0.000400620    0.000005250
      5        6           0.000854693   -0.001163437    0.000010830
      6        6          -0.000497959   -0.001134743   -0.000014700
      7        6          -0.000955057   -0.002380479    0.000018020
      8        6           0.001540426   -0.001999481    0.000001998
      9        6          -0.002439131   -0.000356969   -0.000004108
     10        6           0.002536370    0.000568948   -0.000010013
     11        6          -0.001555245    0.002050527   -0.000019650
     12        6           0.000845624    0.002279979    0.000020704
     13        6          -0.031429901    0.015221738   -0.000020657
     14        6          -0.029077981   -0.019596837    0.000001536
     15        6           0.033628763   -0.009868756   -0.000000133
     16        6          -0.008313542    0.033930740    0.000018963
     17        6           0.028952398    0.019571613    0.000011016
     18        6          -0.002450915    0.034947615    0.000005115
     19        6           0.031533159   -0.015184039   -0.000021934
     20        6          -0.025324244   -0.024339372    0.000009136
     21        6           0.008268615   -0.034035964    0.000022984
     22        6          -0.033591499    0.009824728    0.000000260
     23        6           0.025428051    0.024241098   -0.000010542
     24        6           0.002493411   -0.034936459    0.000004652
     25        1           0.002803327   -0.000252566    0.000001854
     26        1           0.001635475    0.002255847   -0.000002352
     27        1          -0.002218401    0.001703642   -0.000003349
     28        1          -0.002816068    0.000233589   -0.000001184
     29        1          -0.001639040   -0.002252052   -0.000002447
     30        1           0.000320087    0.002782422   -0.000004056
     31        1           0.002560991    0.001089053   -0.000003328
     32        1          -0.000311759   -0.002774248    0.000000089
     33        1          -0.002590851   -0.001063310    0.000003186
     34        1           0.001147489   -0.002542681   -0.000003250
     35        1           0.002230973   -0.001684982   -0.000002638
     36        1          -0.001149353    0.002544832   -0.000001121
 -------------------------------------------------------------------
 Cartesian Forces:  Max     0.034947615 RMS     0.011730620

 GradGradGradGradGradGradGradGradGradGradGradGradGradGradGradGradGradGrad
 Berny optimization.
 Internal  Forces:  Max     0.018835346 RMS     0.005566251
 Search for a local minimum.
 Step number   1 out of a maximum of  216
 All quantities printed in internal units (Hartrees-Bohrs-Radians)
 Mixed Optimization -- RFO/linear search
 Second derivative matrix not updated -- first step.
 ITU=  0
     Eigenvalues ---    0.01911   0.01914   0.01914   0.01920   0.01920
     Eigenvalues ---    0.01961   0.01969   0.01969   0.01993   0.02013
     Eigenvalues ---    0.02020   0.02021   0.02023   0.02023   0.02024
     Eigenvalues ---    0.02089   0.02091   0.02092   0.02096   0.02096
     Eigenvalues ---    0.02097   0.02098   0.02098   0.02098   0.02099
     Eigenvalues ---    0.02099   0.02099   0.02115   0.02116   0.02116
     Eigenvalues ---    0.02117   0.02117   0.02117   0.16000   0.16000
     Eigenvalues ---    0.16000   0.16000   0.16000   0.16000   0.16000
     Eigenvalues ---    0.16000   0.16000   0.16000   0.16000   0.16000
     Eigenvalues ---    0.22342   0.22550   0.22550   0.22656   0.22656
     Eigenvalues ---    0.22797   0.24290   0.24428   0.24428   0.24654
     Eigenvalues ---    0.24654   0.25000   0.25000   0.25000   0.25000
     Eigenvalues ---    0.32074   0.32805   0.32807   0.35023   0.35023
     Eigenvalues ---    0.35027   0.35027   0.35030   0.35032   0.35034
     Eigenvalues ---    0.35036   0.35036   0.35036   0.35038   0.35038
     Eigenvalues ---    0.37120   0.38329   0.38333   0.41640   0.41646
     Eigenvalues ---    0.41651   0.41865   0.41867   0.43436   0.44017
     Eigenvalues ---    0.44031   0.44033   0.44617   0.44621   0.44802
     Eigenvalues ---    0.44838   0.44879   0.44906   0.44907   0.44944
     Eigenvalues ---    0.44945   0.45861   0.45884   0.45889   0.45896
     Eigenvalues ---    0.45899   0.45900
 RFO step:  Lambda=-1.67845650D-02 EMin= 1.91051210D-02
 Linear search not attempted -- first point.
 Iteration  1 RMS(Cart)=  0.01993775 RMS(Int)=  0.00007531
 Iteration  2 RMS(Cart)=  0.00006818 RMS(Int)=  0.00003220
 Iteration  3 RMS(Cart)=  0.00000001 RMS(Int)=  0.00003220
 Variable       Old X    -DE/DX   Delta X   Delta X   Delta X     New X
                                 (Linear)    (Quad)   (Total)
[...]
 08562,0.,0.,-0.00074080,-0.00000078,0.00000087,-0.03500272,0.,0.,-0.00
 012352,0.,0.,0.00047700,0.,-0.00000001,-0.00284336,0.,0.,0.00000824,-0
 .00000005,0.00000010,0.00259391,0.,0.,0.00004545,0.,0.,0.00001711,0.,0
 .,0.00000201,0.,0.,0.00001019,0.,0.,0.00000568,0.,0.,0.00013683,0.0000
 0087,-0.00000095,0.02450288,0.00047541,0.00005100,0.,0.00002627,-0.000
 02641,0.00000001,0.00121356,-0.00190129,-0.00000002,0.00000139,0.00000
 050,0.,-0.00051821,0.00052207,0.,0.00000978,-0.00024311,0.,0.00044620,
 0.00373508,-0.00000007,0.00005419,0.00006123,0.,-0.00840020,-0.0002417
 0,-0.00000007,-0.00002199,-0.00004351,0.,0.00023639,0.00008397,0.,-0.0
 0010241,0.00005635,0.,-0.01616650,-0.00534983,-0.00000011,-0.00017442,
 0.00036905,0.,-0.00072245,-0.00076584,0.,0.00000678,0.00004308,0.,-0.0
 0002151,-0.00003758,0.,0.00066286,0.00172068,0.00000002,0.00002971,-0.
 00004163,0.,0.00004740,-0.00042085,0.,-0.32934546,-0.04243814,-0.00000
 215,0.00005624,-0.00004471,0.,-0.00000459,-0.00001639,0.,0.00000215,0.
 00000880,0.,0.00098561,0.00026096,0.00000004,-0.00011549,-0.00001692,0
 .,0.00000686,0.00005188,0.,-0.00001013,-0.00001351,0.,0.00000790,-0.00
 002700,0.,0.35082044,0.00033848,-0.00088644,0.,-0.00009625,0.00018683,
 0.,-0.00024967,-0.00553310,0.,0.00015460,-0.00002650,0.,-0.00162665,0.
 00053032,0.,0.00002731,-0.00048339,0.,0.00214019,-0.00409159,0.0000000
 2,-0.00018677,-0.00017943,0.,-0.02995005,-0.00080916,-0.00000019,-0.00
 004696,0.00006799,0.,-0.00012559,0.00016916,0.,-0.00012206,0.00000393,
 0.,0.02652576,0.00814740,0.00000016,0.00032211,-0.00027026,0.,0.000867
 38,0.00087862,0.,-0.00001044,-0.00000958,0.,0.00016824,0.00006083,0.,-
 0.00172988,0.00171577,-0.00000001,-0.00001763,-0.00004615,0.,0.0003800
 4,0.00003441,0.,-0.04316228,-0.06687901,-0.00000027,-0.00006735,0.0000
 0147,0.,0.00005683,0.00010958,0.,0.00002850,-0.00011846,0.,-0.00029136
 ,0.00099092,0.,0.00013830,0.00001872,0.,-0.00000733,-0.00003173,0.,-0.
 00002115,-0.00000271,0.,-0.00001290,-0.00003620,0.,0.04547352,0.066749
 71,0.,0.,0.00023891,0.,0.,-0.00126030,-0.00000002,0.00000002,0.0040561
 0,0.,0.,0.00032281,0.,0.,0.00063103,0.,0.,-0.00028079,-0.00000005,0.00
 000003,0.00855822,0.,0.,0.00030406,0.00000003,0.00000005,0.00278984,0.
 ,0.,-0.00002620,0.,0.,-0.00000831,0.,0.,0.00005026,-0.00000008,-0.0000
 0006,0.00259333,0.,0.,-0.00074079,0.,0.,0.00047703,0.,0.,0.00001511,0.
 ,0.,0.00000827,0.00000002,0.,-0.00284038,0.,0.,-0.00008560,0.,0.,-0.00
 012371,-0.00000230,-0.00000029,-0.03502497,0.,0.,-0.00001820,0.,0.,0.0
 0001710,0.,0.,0.00004543,0.00000003,-0.00000001,-0.00475169,0.,0.,-0.0
 0002508,0.,0.,0.00013671,0.,0.,0.00000568,0.,0.,0.00002040,0.00000236,
 0.00000028,0.02454023,0.00009361,0.00013554,0.,0.00004793,-0.00012792,
 0.,-0.00037287,-0.00083284,0.,-0.00045390,-0.00029473,0.,-0.00478260,-
 0.00320665,-0.00000002,-0.00021050,0.00180418,-0.00000001,-0.00017548,
 0.00005401,0.,0.00000638,0.00006344,0.,-0.00041525,-0.00263609,-0.0000
 0003,-0.00005138,0.00015141,0.,-0.01577864,0.02575979,-0.00000017,0.00
 016855,0.00008681,0.,0.00005312,-0.00019101,0.,-0.00007222,-0.00007155
 ,0.,0.00009870,0.00000274,0.,-0.00003330,0.00001586,0.,0.00146925,0.00
 216843,0.00000002,0.01123287,-0.01070328,0.00000007,0.00009712,-0.0001
 0025,0.,-0.16944839,0.13538087,-0.00000105,0.00052251,-0.00014860,0.,0
 .00002020,-0.00039631,0.,0.00000858,0.00001150,0.,-0.00005291,-0.00002
 992,0.,0.00003774,-0.00004987,0.,0.00000003,0.00000988,0.,0.00000274,0
 .00000838,0.,-0.00004233,-0.00001616,0.,0.00001361,-0.00136648,0.,-0.0
 0000278,0.00000163,0.,0.17711665,0.00006524,0.00011964,0.,0.00002618,-
 0.00007268,0.,-0.00054962,-0.00003298,0.,-0.00002414,-0.00002013,0.,-0
 .00155786,0.00046008,0.,-0.00034597,0.00022141,0.,-0.00019401,0.000050
 13,0.,0.00005998,0.00003979,0.,-0.00422449,-0.00323341,0.00000002,-0.0
 0002686,-0.00004776,0.,-0.00407128,0.00664331,-0.00000003,-0.00012456,
 0.00023865,0.,-0.00023763,-0.00049795,0.,-0.00005183,-0.00004432,0.,0.
 00007608,0.00000638,0.,-0.00000717,0.00009154,0.,-0.00126171,0.0009248
 8,-0.00000002,0.02116103,-0.01926030,0.00000016,0.00010648,-0.00005763
 ,0.,0.13476622,-0.22667724,0.00000125,0.00148412,-0.00036451,0.,0.0004
 0672,0.00006150,0.,-0.00004212,-0.00001154,0.,-0.00000607,0.00003664,0
 .,0.00010538,-0.00013439,0.,0.00001453,-0.00000523,0.,-0.00000466,-0.0
 0000810,0.,-0.00000207,0.00001417,0.,0.00048516,0.00027060,0.,-0.00005
 747,-0.00002277,0.,-0.14576824,0.24028842,0.,0.,-0.00126057,0.,0.,0.00
 032301,0.,0.,0.00023964,0.,0.,-0.00028135,-0.00000003,0.,0.00405319,0.
 ,0.,0.00063116,0.,0.,0.00030387,0.,0.,-0.00002619,-0.00000003,0.000000
 01,0.00856185,0.,0.,0.00005029,-0.00000004,0.00000009,0.00276839,0.,0.
 ,-0.00000908,0.,0.,-0.00074044,0.,0.,0.00004544,0.,0.,0.00001715,0.,0.
 ,-0.00001825,0.00000002,0.,-0.00284985,-0.00000001,0.,0.00261262,0.,0.
 ,0.00000841,-0.00000110,0.00000129,-0.03499730,0.,0.,0.00047738,0.,0.,
 -0.00012370,0.,0.,0.00001513,0.,0.,-0.00008562,0.,0.,-0.00002515,0.,0.
 ,-0.00001965,0.,0.,0.00000199,0.,0.,0.00002038,0.,0.,0.00024850,0.,0.,
 0.00013711,0.00000116,-0.00000137,0.02452402,0.00000978,-0.00024311,0.
 ,-0.00051821,0.00052207,0.,0.00000139,0.00000050,0.,0.00121358,-0.0019
 0129,-0.00000001,0.00002627,-0.00002641,0.,0.00047541,0.00005100,0.000
 00001,-0.00010241,0.00005635,0.,0.00023639,0.00008397,0.,-0.00002199,-
 0.00004351,0.,-0.00840018,-0.00024173,-0.00000004,0.00005419,0.0000612
 3,0.,0.00044619,0.00373509,-0.00000004,0.00002971,-0.00004163,0.,-0.00
 002151,-0.00003758,0.,0.00005624,-0.00004471,0.,-0.32934489,-0.0424385
 7,-0.00000094,-0.00017442,0.00036905,0.,0.00000215,0.00000881,0.,-0.01
 616657,-0.00534985,-0.00000006,-0.00000459,-0.00001639,0.,0.00000678,0
 .00004308,0.,-0.00072245,-0.00076584,0.,0.00004740,-0.00042085,0.,0.00
 066286,0.00172068,0.,-0.00001013,-0.00001351,0.,0.00000790,-0.00002700
 ,0.,-0.00000377,-0.00001213,0.,0.00098561,0.00026096,0.00000002,-0.000
 11549,-0.00001692,0.,-0.00001411,-0.00000190,0.,-0.00000699,0.00001027
 ,0.,0.35081991,0.00002731,-0.00048339,0.,-0.00162665,0.00053032,0.,0.0
 0015460,-0.00002650,0.,-0.00024966,-0.00553309,0.00000002,-0.00009625,
 0.00018683,0.,0.00033848,-0.00088644,0.,-0.00012206,0.00000393,0.,-0.0
 0012559,0.00016916,0.,-0.00004696,0.00006799,0.,-0.02995005,-0.0008091
 6,-0.00000010,-0.00018677,-0.00017943,0.,0.00214020,-0.00409159,0.0000
 0005,-0.00001763,-0.00004615,0.,0.00016824,0.00006083,0.,-0.00006735,0
 .00000147,0.,-0.04316274,-0.06687923,-0.00000006,0.00032211,-0.0002702
 6,0.,0.00002850,-0.00011846,0.,0.02652575,0.00814742,0.00000009,0.0000
 5683,0.00010958,0.,-0.00001044,-0.00000958,0.,0.00086738,0.00087862,0.
 ,0.00038004,0.00003441,0.,-0.00172987,0.00171578,-0.00000002,-0.000021
 15,-0.00000271,0.,-0.00001290,-0.00003620,0.,0.00000090,-0.00000159,0.
 ,-0.00029135,0.00099092,-0.00000002,0.00013830,0.00001872,0.,-0.000001
 90,0.00000174,0.,-0.00000279,0.00000166,0.,0.04547397,0.06674991,0.,0.
 ,-0.00028080,0.,0.,0.00063103,0.,0.,0.00032281,-0.00000002,0.00000002,
 0.00405613,0.,0.,-0.00126030,0.,0.,0.00023891,0.,0.,0.00005026,0.,0.,-
 0.00000831,0.,0.,-0.00002620,0.00000005,0.00000002,0.00278983,0.,0.,0.
 00030406,-0.00000004,0.00000005,0.00855820,0.,0.,-0.00008560,0.,0.,0.0
 0000827,0.,0.,-0.00001820,-0.00000090,-0.00000008,-0.03502503,0.,0.,-0
 .00074078,0.,0.,0.00004543,-0.00000018,-0.00000002,0.00259334,0.,0.,0.
 00001710,0.,0.,0.00001511,-0.00000001,0.,0.00047703,0.,0.,-0.00012370,
 0.00000002,0.,-0.00284040,0.,0.,0.00000568,0.,0.,0.00002040,0.,0.,0.00
 000201,0.00000003,-0.00000001,-0.00475167,0.,0.,-0.00002508,0.,0.,0.00
 001018,0.,0.,0.00000199,0.00000105,0.00000004,0.02454028,-0.00021050,0
 .00180417,0.,-0.00478259,-0.00320664,-0.00000005,-0.00045390,-0.000294
 73,0.,-0.00037287,-0.00083284,0.,0.00004793,-0.00012792,0.,0.00009361,
 0.00013554,0.,0.00016855,0.00008681,0.,-0.01577861,0.02575979,-0.00000
 016,-0.00005138,0.00015141,0.,-0.00041526,-0.00263610,-0.00000004,0.00
 000638,0.00006344,0.,-0.00017548,0.00005401,0.,0.00009713,-0.00010025,
 0.,0.00146925,0.00216843,0.00000002,0.00002020,-0.00039631,0.,0.000522
 52,-0.00014860,0.,-0.00007222,-0.00007155,0.,-0.00005291,-0.00002992,0
 .,0.00005312,-0.00019102,0.,0.00000858,0.00001150,0.,-0.00003330,0.000
 01586,0.,0.00009870,0.00000274,0.,-0.16944835,0.13538181,-0.00000115,0
 .01123292,-0.01070332,0.00000007,-0.00004233,-0.00001616,0.,0.00001362
 ,-0.00136648,0.,-0.00004130,-0.00002402,0.,0.00003774,-0.00004987,0.,0
 .00000003,0.00000988,0.,-0.00000699,-0.00000279,0.,-0.00000387,0.00000
 781,0.,-0.00000278,0.00000163,0.,0.17711655,-0.00034597,0.00022142,0.,
 -0.00155786,0.00046007,0.,-0.00002414,-0.00002013,0.,-0.00054961,-0.00
 003298,0.,0.00002618,-0.00007268,0.,0.00006524,0.00011964,0.,-0.000124
 56,0.00023865,0.,-0.00407129,0.00664330,-0.00000003,-0.00002686,-0.000
 04776,0.,-0.00422448,-0.00323337,0.00000002,0.00005998,0.00003979,0.,-
 0.00019400,0.00005013,0.,0.00010648,-0.00005763,0.,-0.00126171,0.00092
 488,-0.00000002,0.00040672,0.00006150,0.,0.00148411,-0.00036451,0.,-0.
 00005183,-0.00004432,0.,-0.00000607,0.00003664,0.,-0.00023763,-0.00049
 795,0.,-0.00004212,-0.00001154,0.,-0.00000717,0.00009154,0.,0.00007608
 ,0.00000638,0.,0.13476720,-0.22667904,0.00000136,0.02116096,-0.0192602
 0,0.00000016,-0.00000207,0.00001416,0.,0.00048517,0.00027060,0.,0.0000
 3495,0.00001636,0.,0.00010538,-0.00013439,0.,0.00001453,-0.00000523,0.
 ,0.00001027,0.00000166,0.,0.00000781,-0.00000851,0.,-0.00005747,-0.000
 02277,0.,-0.14576915,0.24029010,0.,0.,0.00063116,-0.00000003,0.,0.0040
 5316,0.,0.,-0.00028135,0.,0.,0.00023965,0.,0.,0.00032301,0.,0.,-0.0012
 6057,0.,0.,-0.00000908,-0.00000005,0.00000010,0.00276836,0.,0.,0.00005
 029,-0.00000004,0.00000002,0.00856187,0.,0.,-0.00002619,0.,0.,0.000303
 87,0.,0.,0.00000841,0.00000002,0.,-0.00284983,0.,0.,-0.00012370,0.,0.,
 0.00047738,0.,0.,0.00004544,0.,0.,-0.00008562,0.,0.,-0.00074045,0.,0.,
 0.00001513,0.,0.,-0.00001825,0.,0.,0.00001715,-0.00000118,0.00000144,-
 0.03499699,0.,-0.00000005,0.00261260,0.,0.,0.00002038,0.,0.,0.00024851
 ,0.,0.,0.00013695,0.,0.,-0.00002515,0.,0.,-0.00001965,0.,0.,0.00000199
 ,0.,0.,0.00001019,0.,0.,0.00013711,0.00000128,-0.00000148,0.02452376,-
 0.00074283,-0.00093224,0.,-0.00009980,0.00036692,0.,-0.00004551,0.0036
 7224,-0.00000003,0.00004405,0.00002209,0.,0.00046210,0.00037850,0.,0.0
 0000569,-0.00003232,0.,0.00021881,-0.00006912,0.,-0.00011169,-0.000093
 40,0.,-0.01650237,-0.00481532,-0.00000008,-0.00003989,0.00000863,0.,0.
 00172934,-0.00185480,-0.00000004,-0.00000448,-0.00000482,0.,0.00003438
 ,0.00042112,0.,0.00001834,0.00005016,0.,0.00002457,0.00002592,0.,0.000
 00175,0.00002997,0.,-0.00054149,0.00030814,0.,-0.32954927,-0.04229328,
 -0.00000152,0.00001799,-0.00001319,0.,-0.00767775,0.00024286,-0.000000
 05,0.00076771,-0.00206437,0.00000002,0.00001857,-0.00027592,0.,0.00000
 519,0.00005818,0.,0.00001474,-0.00003518,0.,-0.00002090,0.00005776,0.,
 -0.00000684,0.00001046,0.,-0.00000784,0.00003608,0.,-0.00000398,-0.000
 01210,0.,0.00001586,-0.00003710,0.,0.00055635,0.00110672,0.,0.00097467
 ,-0.00026048,0.00000003,-0.00001449,-0.00000151,0.,-0.00001958,0.00000
 808,0.,0.35055967,0.00121748,0.00075268,0.,0.00009643,-0.00037374,0.,0
 .00202136,-0.00426928,0.00000002,-0.00013206,-0.00006905,0.,0.00009630
 ,-0.00087380,0.,0.00003820,0.00020758,0.,0.00014203,0.00018824,0.,0.00
 008475,0.00001258,0.,0.02495833,0.00727402,0.00000012,0.00001217,0.000
 08613,0.,-0.00026277,-0.00537976,0.00000002,0.00024328,-0.00012125,0.,
 -0.00038113,0.00004905,0.,0.00007318,0.00003969,0.,-0.00018064,0.00001
 512,0.,0.00001016,-0.00011831,0.,-0.00132505,0.00069919,0.,-0.04171738
 ,-0.06657495,-0.00000018,-0.00008655,0.00008717,0.,-0.03160557,-0.0003
 3565,-0.00000014,0.00144083,0.00162304,0.,-0.00022931,-0.00046301,0.,0
 .00003440,-0.00002150,0.,0.00001836,-0.00001773,0.,-0.00000151,-0.0000
 0386,0.,-0.00000259,0.00000149,0.,0.00002197,-0.00002030,0.,0.00000094
 ,-0.00000138,0.,0.00002240,-0.00004186,0.,-0.00074236,-0.00025027,0.,0
 .00028872,0.00100755,-0.00000001,-0.00000617,0.00000928,0.,0.00001571,
 0.00000673,0.,0.04600524,0.06690417,0.,0.,0.00063104,0.,0.,-0.00028136
 ,-0.00000002,0.00000003,0.00405244,0.,0.,0.00032301,0.,0.,0.00023888,0
 .,0.,-0.00126044,0.,0.,-0.00000913,0.,0.,0.00005031,-0.00000011,-0.000
 00004,0.00276260,0.,0.,-0.00002621,-0.00000003,0.00000003,0.00856077,0
 .,0.,0.00030392,0.,0.,-0.00012296,0.,0.,-0.00001825,0.,0.,0.00000842,0
 .,0.,0.00004543,0.,0.,0.00047748,-0.00000159,-0.00000019,-0.03501336,0
 .,0.,0.00001712,0.00000004,0.00000002,0.00260673,0.00000002,-0.0000000
 1,-0.00284687,0.,0.,-0.00074045,0.,0.,-0.00008561,0.,0.,0.00001513,0.,
 0.,0.00013693,0.,0.,0.00000200,0.,0.,0.00002037,0.,0.,0.00000199,0.,0.
 ,0.00013709,0.,0.,0.00024385,0.00000003,-0.00000002,-0.00475718,0.,0.,
 -0.00001965,0.,0.,0.00000569,0.00000167,0.00000018,0.02455525,-0.00008
 659,-0.00010391,0.,-0.00026651,0.00013241,0.,0.00019955,-0.00000372,0.
 ,0.00074594,0.00089585,0.,-0.00071546,0.00034947,0.,-0.00291510,0.0026
 3574,-0.00000004,0.00008460,-0.00001456,0.,0.00000577,0.00005966,0.,-0
 .00006673,0.00025624,0.,0.00020436,0.00014327,0.,-0.00550022,0.0012938
 4,-0.00000006,0.01038447,0.01912115,0.00000002,-0.00010445,0.00003297,
 0.,-0.00000155,0.00003563,0.,-0.00001954,0.00002563,0.,0.00005547,-0.0
 0038388,0.,-0.00708764,-0.03173269,-0.00000002,-0.00054537,-0.00010719
 ,0.,0.00146060,0.00128125,0.00000002,0.00043425,-0.00153507,0.,0.00006
 349,-0.00009599,0.,-0.09542545,-0.09207449,-0.00000024,0.00006364,0.00
 006289,0.,-0.00001645,-0.00017119,0.,0.00000665,-0.00001070,0.,0.00001
 045,0.00000925,0.,-0.00000058,-0.00000592,0.,-0.00021738,-0.00058319,0
 .,0.00099847,0.00027548,0.00000003,-0.00000377,0.00000090,0.,-0.000041
 30,0.00003495,0.,0.00000686,-0.00000733,0.,0.00000274,-0.00000466,0.,-
 0.00006733,-0.00016605,0.,0.09836193,0.00005016,0.00006160,0.,0.000402
 63,-0.00020679,0.,-0.00007397,0.00001333,0.,-0.00125231,-0.00073390,-0
 .00000001,0.00063388,0.00030522,0.,0.00428582,-0.00140050,0.00000004,-
 0.00001809,-0.00003866,0.,-0.00011874,-0.00010451,0.,0.00000862,-0.000
 05864,0.,-0.00006567,0.00020343,0.,-0.00030010,0.00184932,0.,-0.010622
 07,-0.01960446,-0.00000004,0.00005281,-0.00001180,0.,0.00005967,-0.000
 01486,0.,-0.00002789,0.00001672,0.,0.00041550,0.00002419,0.,0.00011607
 ,-0.00091148,0.,-0.00015457,0.00010112,0.,-0.00219337,0.00093363,-0.00
 000001,0.00009784,-0.00027776,0.,-0.00002298,0.00004162,0.,-0.09266800
 ,-0.30069296,-0.00000027,0.00004049,-0.00000585,0.,0.00003452,0.000055
 57,0.,-0.00000604,-0.00001185,0.,0.00000161,-0.00002330,0.,-0.00000592
 ,-0.00001178,0.,0.00121662,0.00042340,0.,-0.00026792,0.00097219,0.,-0.
 00001214,-0.00000159,0.,-0.00002402,0.00001636,0.,0.00005188,-0.000031
 73,0.,0.00000838,-0.00000809,0.,-0.00001079,-0.00002935,0.,0.10033201,
 0.31918244,0.,0.,0.00032294,0.,0.,-0.00028101,0.,0.,-0.00126022,0.,0.,
 0.00063054,0.,0.,0.00024008,-0.00000004,0.00000002,0.00405595,0.,0.,-0
 .00002613,0.,0.,0.00005031,0.,0.,0.00030397,0.,0.,-0.00000891,-0.00000
 006,0.00000001,0.00855916,0.00000005,0.00000014,0.00274274,0.,0.,0.000
 04547,0.,0.,-0.00008559,0.,0.,0.00001514,0.,0.,-0.00012536,-0.00000002
 ,-0.00000012,0.00258223,0.,0.,-0.00074043,0.00000002,0.,-0.00284396,0.
 ,0.,0.00047725,0.,0.,0.00001718,-0.00000026,-0.00000033,-0.03509729,0.
 ,0.,-0.00001828,0.,0.,0.00000826,0.,0.,-0.00001968,0.,0.,0.00000568,0.
 ,0.,0.00001018,0.,0.,0.00024915,0.00000002,0.,-0.00474974,0.,0.,0.0000
 0201,0.,0.,0.00013695,0.,0.,0.00013671,0.,0.,0.00000199,0.,0.,-0.00002
 516,0.00000029,0.00000028,0.02466751,0.00000569,-0.00003232,0.,0.00046
 209,0.00037850,0.,0.00004405,0.00002209,0.,-0.00004550,0.00367225,-0.0
 0000002,-0.00009979,0.00036692,0.,-0.00074284,-0.00093224,0.,-0.000004
 48,-0.00000482,0.,0.00172935,-0.00185480,0.,-0.00003989,0.00000863,0.,
 -0.01650241,-0.00481532,-0.00000005,-0.00011169,-0.00009340,0.,0.00021
 881,-0.00006912,0.,0.00001799,-0.00001319,0.,-0.00054150,0.00030814,0.
 ,0.00001857,-0.00027592,0.,0.00076771,-0.00206437,0.00000002,0.0000183
 4,0.00005016,0.,0.00001474,-0.00003518,0.,0.00003438,0.00042112,0.,0.0
 0000519,0.00005818,0.,0.00000175,0.00002997,0.,0.00002457,0.00002592,0
 .,-0.00767775,0.00024283,-0.00000004,-0.32954890,-0.04229358,-0.000000
 69,-0.00000399,-0.00001210,0.,0.00001586,-0.00003710,0.,-0.00006733,-0
 .00001079,0.,-0.00002090,0.00005776,0.,-0.00000684,0.00001046,0.,-0.00
 001449,-0.00000151,0.,-0.00001958,0.00000808,0.,0.00055635,0.00110672,
 0.,0.00097467,-0.00026048,0.00000001,-0.00001374,-0.00000310,0.,-0.000
 00784,0.00003608,0.,0.35055934,0.00003820,0.00020758,0.,0.00009629,-0.
 00087380,0.,-0.00013206,-0.00006905,0.,0.00202136,-0.00426928,0.000000
 03,0.00009643,-0.00037374,0.,0.00121748,0.00075268,0.,0.00024328,-0.00
 012125,0.,-0.00026277,-0.00537977,0.00000004,0.00001217,0.00008613,0.,
 0.02495834,0.00727400,0.00000007,0.00008475,0.00001258,0.,0.00014203,0
 .00018824,0.,-0.00008655,0.00008717,0.,-0.00132506,0.00069919,-0.00000
 001,-0.00022931,-0.00046301,0.,0.00144083,0.00162305,0.,0.00007318,0.0
 0003969,0.,0.00001836,-0.00001773,0.,-0.00038113,0.00004905,0.,0.00003
 440,-0.00002150,0.,0.00001016,-0.00011831,0.,-0.00018064,0.00001512,0.
 ,-0.03160559,-0.00033565,-0.00000010,-0.04171768,-0.06657507,-0.000000
 03,0.00000094,-0.00000138,0.,0.00002240,-0.00004186,0.,-0.00016605,-0.
 00002935,0.,-0.00000151,-0.00000386,0.,-0.00000259,0.00000149,0.,-0.00
 000617,0.00000928,0.,0.00001571,0.00000673,0.,-0.00074236,-0.00025027,
 0.,0.00028873,0.00100755,-0.00000001,-0.00000310,0.00000136,0.,0.00002
 197,-0.00002030,0.,0.04600555,0.06690430,0.,0.,-0.00126044,0.,0.,0.000
 23888,0.,0.,0.00032301,-0.00000003,0.00000003,0.00405242,0.,0.,-0.0002
 8135,0.,0.,0.00063103,0.,0.,0.00030392,-0.00000003,0.00000003,0.008560
 81,0.,0.,-0.00002621,-0.00000013,-0.00000003,0.00276263,0.,0.,0.000050
 31,0.,0.,-0.00000913,0.,0.,0.00001712,0.,0.,0.00047748,0.,0.,-0.000740
 45,0.00000001,-0.00000002,-0.00284685,0.,0.,-0.00001825,0.,0.,0.000015
 13,0.,0.,-0.00012296,0.,0.,-0.00008561,0.,0.,0.00004543,0.,0.,0.000008
 42,0.,-0.00000003,0.00260678,-0.00000064,0.00000001,-0.03501346,0.,0.,
 0.00000199,0.,0.,0.00013709,0.,0.,-0.00002516,0.,0.,0.00013692,0.,0.,0
 .00000200,0.,0.,-0.00001965,0.,0.,0.00000569,0.,0.,0.00024384,0.000000
 03,-0.00000002,-0.00475720,0.,0.,0.00001018,0.,0.,0.00002037,0.0000007
 8,0.00000003,0.02455529\\0.00006624,0.00027706,-0.00000038,-0.00014509
 ,0.00018496,0.00000021,0.00030474,0.00001889,-0.00000002,-0.00030577,-
 0.00001899,0.00000032,0.00014467,-0.00018612,0.00000020,-0.00006516,-0
 .00027613,-0.00000049,-0.00019124,-0.00058362,0.00000024,0.00035720,-0
 .00043858,-0.00000001,-0.00059288,-0.00006335,-0.00000001,0.00059390,0
 .00006522,0.00000008,-0.00035793,0.00043990,-0.00000021,0.00019064,0.0
 0058261,0.00000017,-0.00000780,0.00022174,-0.00000011,-0.00020114,0.00
 010092,-0.00000003,0.00015107,0.00016262,-0.00000024,-0.00024046,0.000
 09133,0.00000006,0.00020055,-0.00010063,0.00000010,0.00020464,0.000102
 67,0.00000016,0.00000774,-0.00022114,-0.00000008,0.00006367,-0.0002055
 2,0.00000015,0.00024033,-0.00009272,0.00000023,-0.00015131,-0.00016321
 ,-0.00000012,-0.00006155,0.00020535,-0.00000014,-0.00020494,-0.0001036
 9,0.00000003,-0.00000634,-0.00003103,0.00000008,0.00001712,-0.00001486
 ,0.00000006,-0.00001473,-0.00002315,0.00000004,0.00000633,0.00003086,0
 .00000002,-0.00001695,0.00001483,0.,-0.00002490,-0.00001232,-0.0000001
 8,-0.00000709,0.00003117,-0.00000006,0.00002498,0.00001250,-0.00000005
 ,0.00000663,-0.00003087,0.00000011,-0.00001645,-0.00001239,-0.00000008
 ,0.00001482,0.00002325,0.00000006,0.00001645,0.00001247,-0.00000010\\\
 @


 CONTRAIWISE...CONTINUED TWEEDLEDEE, IF IT WAS SO, IT MIGHT BE,
 AND IF IT WERE SO, IT WOULD BE.....
 BUT AS IT ISN'T, IT AIN'T....
 THAT'S LOGIC.....
 ALICE THROUGH THE LOOKING GLASS
 Job cpu time:  0 days  4 hours 14 minutes 39.7 seconds.
 File lengths (MBytes):  RWF=    628 Int=      0 D2E=      0 Chk=     12 Scr=      1
 Normal termination of Gaussian 09 at Thu Jun  5 15:54:25 2025.
