 Entering Gaussian System, Link 0=g09
 Input=C2H6.gjf
 Output=C2H6.log
 Initial command:
 /share/apps/g09/l1.exe /scratch/Gau-21803.inp -scrdir=/scratch/
 Entering Link 1 = /share/apps/g09/l1.exe PID=     21804.
  
 Copyright (c) 1988,1990,1992,1993,1995,1998,2003,2009,2010,
            Gaussian, Inc.  All Rights Reserved.
  
 This is part of the Gaussian(R) 09 program.  It is based on
 the Gaussian(R) 03 system (copyright 2003, Gaussian, Inc.),
 the Gaussian(R) 98 system (copyright 1998, Gaussian, Inc.),
 the Gaussian(R) 94 system (copyright 1995, Gaussian, Inc.),
 the Gaussian 92(TM) system (copyright 1992, Gaussian, Inc.),
 the Gaussian 90(TM) system (copyright 1990, Gaussian, Inc.),
 the Gaussian 88(TM) system (copyright 1988, Gaussian, Inc.),
 the Gaussian 86(TM) system (copyright 1986, Carnegie Mellon
 University), and the Gaussian 82(TM) system (copyright 1983,
 Carnegie Mellon University). Gaussian is a federally registered
 trademark of Gaussian, Inc.
  
 This software contains proprietary and confidential information,
 including trade secrets, belonging to Gaussian, Inc.
  
 This software is provided under written license and may be
 used, copied, transmitted, or stored only in accord with that
 written license.
  
 The following legend is applicable only to US Government
 contracts under FAR:
  
                    RESTRICTED RIGHTS LEGEND
  
 Use, reproduction and disclosure by the US Government is
 subject to restrictions as set forth in subparagraphs (a)
 and (c) of the Commercial Computer Software - Restricted
 Rights clause in FAR 52.227-19.
  
 Gaussian, Inc.
 340 Quinnipiac St., Bldg. 40, Wallingford CT 06492
  
  
 ---------------------------------------------------------------
 Warning -- This program may not be used in any manner that
 competes with the business of Gaussian, Inc. or will provide
 assistance to any competitor of Gaussian, Inc.  The licensee
 of this program is prohibited from giving any competitor of
 Gaussian, Inc. access to this program.  By using this program,
 the user acknowledges that Gaussian, Inc. is engaged in the
 business of creating and licensing software in the field of
 computational chemistry and represents and warrants to the
 licensee that it is not a competitor of Gaussian, Inc. and that
 it will not use this program in any manner prohibited above.
 ---------------------------------------------------------------
  

 Cite this work as:
 Gaussian 09, Revision B.01,
 M. J. Frisch, G. W. Trucks, H. B. Schlegel, G. E. Scuseria, 
 M. A. Robb, J. R. Cheeseman, G. Scalmani, V. Barone, B. Mennucci, 
 G. A. Petersson, H. Nakatsuji, M. Caricato, X. Li, H. P. Hratchian, 
 A. F. Izmaylov, J. Bloino, G. Zheng, J. L. Sonnenberg, M. Hada, 
 M. Ehara, K. Toyota, R. Fukuda, J. Hasegawa, M. Ishida, T. Nakajima, 
 Y. Honda, O. Kitao, H. Nakai, T. Vreven, J. A. Montgomery, Jr., 
 J. E. Peralta, F. Ogliaro, M. Bearpark, J. J. Heyd, E. Brothers, 
 K. N. Kudin, V. N. Staroverov, T. Keith, R. Kobayashi, J. Normand, 
 K. Raghavachari, A. Rendell, J. C. Burant, S. S. Iyengar, J. Tomasi, 
 M. Cossi, N. Rega, J. M. Millam, M. Klene, J. E. Knox, J. B. Cross, 
 V. Bakken, C. Adamo, J. Jaramillo, R. Gomperts, R. E. Stratmann, 
 O. Yazyev, A. J. Austin, R. Cammi, C. Pomelli, J. W. Ochterski, 
 R. L. Martin, K. Morokuma, V. G. Zakrzewski, G. A. Voth, 
 P. Salvador, J. J. Dannenberg, S. Dapprich, A. D. Daniels, 
 O. Farkas, J. B. Foresman, J. V. Ortiz, J. Cioslowski, 
 and D. J. Fox, Gaussian, Inc., Wallingford CT, 2010.
 
 ******************************************
 Gaussian 09:  AM64L-G09RevB.01 12-Aug-2010
                 4-Jun-2025 
 ******************************************
 %nprocshared=4
 Will use up to    4 processors via shared memory.
 %mem=20GB
 ------------------------------------------------
 # opt freq b3lyp/6-31g geom=connectivity scf=xqc
 ------------------------------------------------
 1/14=-1,18=20,19=15,26=3,38=1,57=2/1,3;
 2/9=110,12=2,17=6,18=5,40=1/2;
 3/5=1,6=6,11=2,16=1,25=1,30=1,71=1,74=-5/1,2,3;
 4//1;
 5/5=2,8=3,13=1,38=5/2,8;
 6/7=2,8=2,9=2,10=2,28=1/1;
 7//1,2,3,16;
 1/14=-1,18=20,19=15/3(2);
 2/9=110/2;
 99//99;
 2/9=110/2;
 3/5=1,6=6,11=2,16=1,25=1,30=1,71=1,74=-5/1,2,3;
 4/5=5,16=3/1;
 5/5=2,8=3,13=1,38=5/2,8;
 7//1,2,3,16;
 1/14=-1,18=20,19=15/3(-5);
 2/9=110/2;
 6/7=2,8=2,9=2,10=2,19=2,28=1/1;
 99/9=1/99;
 ------
 C2H6_M
 ------
 Symbolic Z-matrix:
 Charge =  0 Multiplicity = 1
 C                    -0.3021    1.118    -2.0531 
 H                    -0.3021    2.1377   -2.4524 
 H                     0.581     0.6081   -2.4524 
 H                    -1.1851    0.6081   -2.4524 
 C                    -0.3021    1.118    -0.5232 
 H                    -1.1851    1.6278   -0.1239 
 H                    -0.3021    0.0983   -0.1239 
 H                     0.581     1.6278   -0.1239 
 

 GradGradGradGradGradGradGradGradGradGradGradGradGradGradGradGradGradGrad
 Berny optimization.
 Initialization pass.
                           ----------------------------
                           !    Initial Parameters    !
                           ! (Angstroms and Degrees)  !
 --------------------------                            --------------------------
 ! Name  Definition              Value          Derivative Info.                !
 --------------------------------------------------------------------------------
 ! R1    R(1,2)                  1.0951         estimate D2E/DX2                !
 ! R2    R(1,3)                  1.0951         estimate D2E/DX2                !
 ! R3    R(1,4)                  1.095          estimate D2E/DX2                !
 ! R4    R(1,5)                  1.5299         estimate D2E/DX2                !
 ! R5    R(5,6)                  1.095          estimate D2E/DX2                !
 ! R6    R(5,7)                  1.0951         estimate D2E/DX2                !
 ! R7    R(5,8)                  1.0951         estimate D2E/DX2                !
 ! A1    A(2,1,3)              107.4939         estimate D2E/DX2                !
 ! A2    A(2,1,4)              107.4952         estimate D2E/DX2                !
 ! A3    A(2,1,5)              111.3846         estimate D2E/DX2                !
 ! A4    A(3,1,4)              107.4864         estimate D2E/DX2                !
 ! A5    A(3,1,5)              111.3839         estimate D2E/DX2                !
 ! A6    A(4,1,5)              111.3855         estimate D2E/DX2                !
 ! A7    A(1,5,6)              111.3865         estimate D2E/DX2                !
 ! A8    A(1,5,7)              111.3846         estimate D2E/DX2                !
 ! A9    A(1,5,8)              111.3849         estimate D2E/DX2                !
 ! A10   A(6,5,7)              107.4909         estimate D2E/DX2                !
 ! A11   A(6,5,8)              107.493          estimate D2E/DX2                !
 ! A12   A(7,5,8)              107.4896         estimate D2E/DX2                !
 ! D1    D(2,1,5,6)             60.0            estimate D2E/DX2                !
 ! D2    D(2,1,5,7)            180.0            estimate D2E/DX2                !
 ! D3    D(2,1,5,8)            -60.0028         estimate D2E/DX2                !
 ! D4    D(3,1,5,6)           -179.9979         estimate D2E/DX2                !
 ! D5    D(3,1,5,7)            -59.998          estimate D2E/DX2                !
 ! D6    D(3,1,5,8)             59.9992         estimate D2E/DX2                !
 ! D7    D(4,1,5,6)            -60.0048         estimate D2E/DX2                !
 ! D8    D(4,1,5,7)             59.9951         estimate D2E/DX2                !
 ! D9    D(4,1,5,8)            179.9923         estimate D2E/DX2                !
 --------------------------------------------------------------------------------
 Trust Radius=3.00D-01 FncErr=1.00D-07 GrdErr=1.00D-06
 Number of steps in this run=     38 maximum allowed number of steps=    100.
 GradGradGradGradGradGradGradGradGradGradGradGradGradGradGradGradGradGrad

                          Input orientation:                          
 ---------------------------------------------------------------------
 Center     Atomic      Atomic             Coordinates (Angstroms)
 Number     Number       Type             X           Y           Z
 ---------------------------------------------------------------------
      1          6           0       -0.302100    1.118000   -2.053100
      2          1           0       -0.302100    2.137700   -2.452400
      3          1           0        0.581000    0.608100   -2.452400
      4          1           0       -1.185100    0.608100   -2.452400
      5          6           0       -0.302100    1.118000   -0.523200
      6          1           0       -1.185100    1.627800   -0.123900
      7          1           0       -0.302100    0.098300   -0.123900
      8          1           0        0.581000    1.627800   -0.123900
 ---------------------------------------------------------------------
                    Distance matrix (angstroms):
                    1          2          3          4          5
     1  C    0.000000
     2  H    1.095093   0.000000
     3  H    1.095127   1.766222   0.000000
     4  H    1.095047   1.766172   1.766100   0.000000
     5  C    1.529900   2.182109   2.182127   2.182086   0.000000
     6  H    2.182063   2.541968   3.095288   2.541987   1.095000
     7  H    2.182109   3.095329   2.541982   2.541948   1.095093
     8  H    2.182103   2.542002   2.541987   3.095288   1.095081
                    6          7          8
     6  H    0.000000
     7  H    1.766086   0.000000
     8  H    1.766100   1.766136   0.000000
 Stoichiometry    C2H6
 Framework group  C1[X(C2H6)]
 Deg. of freedom    18
 Full point group                 C1      NOp   1
 Largest Abelian subgroup         C1      NOp   1
 Largest concise Abelian subgroup C1      NOp   1
                         Standard orientation:                         
 ---------------------------------------------------------------------
 Center     Atomic      Atomic             Coordinates (Angstroms)
 Number     Number       Type             X           Y           Z
 ---------------------------------------------------------------------
      1          6           0       -0.764950   -0.000011   -0.000011
      2          1           0       -1.164250   -1.019711    0.000020
      3          1           0       -1.164250    0.509916    0.883073
      4          1           0       -1.164250    0.509862   -0.883027
      5          6           0        0.764950   -0.000011   -0.000011
      6          1           0        1.164250   -0.509838   -0.882996
      7          1           0        1.164250    1.019689   -0.000042
      8          1           0        1.164250   -0.509784    0.883104
 ---------------------------------------------------------------------
 Rotational constants (GHZ):     80.3810580     19.9096751     19.9094734
 Standard basis: 6-31G (6D, 7F)
 There are    30 symmetry adapted basis functions of A   symmetry.
 Integral buffers will be    131072 words long.
 Raffenetti 2 integral format.
 Two-electron integral symmetry is turned on.
    30 basis functions,    68 primitive gaussians,    30 cartesian basis functions
     9 alpha electrons        9 beta electrons
       nuclear repulsion energy        42.1384604392 Hartrees.
 NAtoms=    8 NActive=    8 NUniq=    8 SFac= 1.00D+00 NAtFMM=   50 NAOKFM=F Big=F
 One-electron integrals computed using PRISM.
 NBasis=    30 RedAO= T  NBF=    30
 NBsUse=    30 1.00D-06 NBFU=    30
 Harris functional with IExCor=  402 diagonalized for initial guess.
 ExpMin= 1.61D-01 ExpMax= 3.05D+03 ExpMxC= 4.57D+02 IAcc=1 IRadAn=         1 AccDes= 0.00D+00
 HarFok:  IExCor=  402 AccDes= 0.00D+00 IRadAn=         1 IDoV= 1
 ScaDFX=  1.000000  1.000000  1.000000  1.000000
 FoFCou: FMM=F IPFlag=           0 FMFlag=      100000 FMFlg1=           0
         NFxFlg=           0 DoJE=T BraDBF=F KetDBF=T FulRan=T
         Omega=  0.000000  0.000000  1.000000  0.000000  0.000000 ICntrl=     500 IOpCl=  0
         NMat0=    1 NMatS0=    1 NMatT0=    0 NMatD0=    1 NMtDS0=    0 NMtDT0=    0
         I1Cent=           4 NGrid=           0.
 Petite list used in FoFCou.
 Initial guess orbital symmetries:
       Occupied  (A) (A) (A) (A) (A) (A) (A) (A) (A)
       Virtual   (A) (A) (A) (A) (A) (A) (A) (A) (A) (A) (A) (A)
                 (A) (A) (A) (A) (A) (A) (A) (A) (A)
 The electronic state of the initial guess is 1-A.
 Requested convergence on RMS density matrix=1.00D-08 within  64 cycles.
 Requested convergence on MAX density matrix=1.00D-06.
 Requested convergence on             energy=1.00D-06.
 No special actions if energy rises.
 Keep R1 ints in memory in canonical form, NReq=1041815.
 Integral accuracy reduced to 1.0D-05 until final iterations.
 Initial convergence to 1.0D-05 achieved.  Increase integral accuracy.
 SCF Done:  E(RB3LYP) =  -79.8127133864     A.U. after   10 cycles
             Convg  =    0.8701D-09             -V/T =  2.0062
 QCSCF skips out because SCF is already converged.

 **********************************************************************

            Population analysis using the SCF density.

 **********************************************************************

 Orbital symmetries:
       Occupied  (A) (A) (A) (A) (A) (A) (A) (A) (A)
       Virtual   (A) (A) (A) (A) (A) (A) (A) (A) (A) (A) (A) (A)
                 (A) (A) (A) (A) (A) (A) (A) (A) (A)
 The electronic state is 1-A.
 Alpha  occ. eigenvalues --  -10.16607 -10.16594  -0.75052  -0.61522  -0.43194
 Alpha  occ. eigenvalues --   -0.43193  -0.36507  -0.33993  -0.33993
 Alpha virt. eigenvalues --    0.10428   0.15535   0.16363   0.16363   0.19017
 Alpha virt. eigenvalues --    0.19017   0.24136   0.53828   0.56110   0.56112
 Alpha virt. eigenvalues --    0.64812   0.64813   0.67678   0.91954   0.92818
 Alpha virt. eigenvalues --    0.92819   0.97418   0.97418   0.98067   1.09024
 Alpha virt. eigenvalues --    1.44626
          Condensed to atoms (all electrons):
              1          2          3          4          5          6
     1  C    5.032210   0.381190   0.381187   0.381192   0.336991  -0.037021
     2  H    0.381190   0.592885  -0.033989  -0.033992  -0.037023  -0.003840
     3  H    0.381187  -0.033989   0.592902  -0.034002  -0.037021   0.004709
     4  H    0.381192  -0.033992  -0.034002   0.592886  -0.037022  -0.003840
     5  C    0.336991  -0.037023  -0.037021  -0.037022   5.032207   0.381198
     6  H   -0.037021  -0.003840   0.004709  -0.003840   0.381198   0.592872
     7  H   -0.037021   0.004709  -0.003840  -0.003841   0.381190  -0.033998
     8  H   -0.037020  -0.003840  -0.003841   0.004709   0.381194  -0.033996
              7          8
     1  C   -0.037021  -0.037020
     2  H    0.004709  -0.003840
     3  H   -0.003840  -0.003841
     4  H   -0.003841   0.004709
     5  C    0.381190   0.381194
     6  H   -0.033998  -0.033996
     7  H    0.592900  -0.033996
     8  H   -0.033996   0.592887
 Mulliken atomic charges:
              1
     1  C   -0.401707
     2  H    0.133900
     3  H    0.133895
     4  H    0.133909
     5  C   -0.401712
     6  H    0.133917
     7  H    0.133897
     8  H    0.133903
 Sum of Mulliken atomic charges =   0.00000
 Mulliken charges with hydrogens summed into heavy atoms:
              1
     1  C   -0.000004
     5  C    0.000004
 Sum of Mulliken charges with hydrogens summed into heavy atoms =   0.00000
 Electronic spatial extent (au):  <R**2>=            109.6990
 Charge=              0.0000 electrons
 Dipole moment (field-independent basis, Debye):
    X=              0.0001    Y=              0.0000    Z=             -0.0001  Tot=              0.0001
 Quadrupole moment (field-independent basis, Debye-Ang):
   XX=            -15.1870   YY=            -14.8031   ZZ=            -14.8033
   XY=             -0.0001   XZ=              0.0000   YZ=              0.0000
 Traceless Quadrupole moment (field-independent basis, Debye-Ang):
   XX=             -0.2559   YY=              0.1280   ZZ=              0.1278
   XY=             -0.0001   XZ=              0.0000   YZ=              0.0000
 Octapole moment (field-independent basis, Debye-Ang**2):
  XXX=              0.0005  YYY=             -0.0001  ZZZ=             -0.0002  XYY=             -0.0002
  XXY=              0.0001  XXZ=             -0.0002  XZZ=              0.0003  YZZ=              0.0000
  YYZ=             -0.0001  XYZ=              0.0000
 Hexadecapole moment (field-independent basis, Debye-Ang**3):
 XXXX=            -92.4818 YYYY=            -28.7948 ZZZZ=            -28.7938 XXXY=             -0.0005
 XXXZ=              0.0000 YYYX=              1.1111 YYYZ=              0.0000 ZZZX=              0.0001
 ZZZY=              0.0000 XXYY=            -19.2505 XXZZ=            -19.2506 YYZZ=             -9.5981
 XXYZ=              0.0000 YYXZ=             -0.0001 ZZXY=             -1.1114
 N-N= 4.213846043916D+01 E-N=-2.683863679004D+02  KE= 7.931899271180D+01
 Calling FoFJK, ICntrl=      2127 FMM=F ISym2X=0 I1Cent= 0 IOpClX= 0 NMat=1 NMatS=1 NMatT=0.
 ***** Axes restored to original set *****
 -------------------------------------------------------------------
 Center     Atomic                   Forces (Hartrees/Bohr)
 Number     Number              X              Y              Z
 -------------------------------------------------------------------
      1        6           0.000041757    0.000006922   -0.001878395
      2        1          -0.000000008    0.000980030   -0.000276697
      3        1           0.000838460   -0.000479169   -0.000258545
      4        1          -0.000880208   -0.000502928   -0.000276202
      5        6           0.000041780   -0.000047511    0.001862595
      6        1          -0.000898479    0.000526001    0.000286320
      7        1          -0.000000015   -0.000985585    0.000272264
      8        1           0.000856713    0.000502240    0.000268659
 -------------------------------------------------------------------
 Cartesian Forces:  Max     0.001878395 RMS     0.000747599

 GradGradGradGradGradGradGradGradGradGradGradGradGradGradGradGradGradGrad
 Berny optimization.
 Internal  Forces:  Max     0.002689839 RMS     0.000699922
 Search for a local minimum.
 Step number   1 out of a maximum of   38
 All quantities printed in internal units (Hartrees-Bohrs-Radians)
 Mixed Optimization -- En-DIIS/RFO-DIIS
 Second derivative matrix not updated -- first step.
 ITU=  0
     Eigenvalues ---    0.00370   0.05456   0.05456   0.05456   0.05456
     Eigenvalues ---    0.16000   0.16000   0.16000   0.16000   0.16000
     Eigenvalues ---    0.16000   0.29433   0.34227   0.34231   0.34231
     Eigenvalues ---    0.34232   0.34236   0.34241
 RFO step:  Lambda=-4.39939394D-05 EMin= 3.70427759D-03
 Linear search not attempted -- first point.
 Iteration  1 RMS(Cart)=  0.00281974 RMS(Int)=  0.00000083
 Iteration  2 RMS(Cart)=  0.00000114 RMS(Int)=  0.00000014
 Iteration  3 RMS(Cart)=  0.00000000 RMS(Int)=  0.00000014
 Variable       Old X    -DE/DX   Delta X   Delta X   Delta X     New X
                                 (Linear)    (Quad)   (Total)
    R1        2.06943   0.00101   0.00000   0.00296   0.00296   2.07239
    R2        2.06949   0.00099   0.00000   0.00290   0.00290   2.07239
    R3        2.06934   0.00104   0.00000   0.00305   0.00305   2.07239
    R4        2.89109   0.00269   0.00000   0.00914   0.00914   2.90023
    R5        2.06925   0.00107   0.00000   0.00313   0.00313   2.07239
    R6        2.06943   0.00102   0.00000   0.00297   0.00297   2.07240
    R7        2.06940   0.00102   0.00000   0.00299   0.00299   2.07239
    A1        1.87612   0.00011   0.00000   0.00067   0.00067   1.87679
    A2        1.87615   0.00011   0.00000   0.00067   0.00067   1.87681
    A3        1.94403  -0.00009   0.00000  -0.00060  -0.00060   1.94343
    A4        1.87599   0.00012   0.00000   0.00075   0.00075   1.87674
    A5        1.94402  -0.00011   0.00000  -0.00067  -0.00067   1.94334
    A6        1.94404  -0.00011   0.00000  -0.00069  -0.00069   1.94336
    A7        1.94406  -0.00011   0.00000  -0.00071  -0.00071   1.94336
    A8        1.94403  -0.00010   0.00000  -0.00060  -0.00060   1.94343
    A9        1.94403  -0.00011   0.00000  -0.00069  -0.00069   1.94334
   A10        1.87607   0.00011   0.00000   0.00074   0.00074   1.87681
   A11        1.87611   0.00011   0.00000   0.00066   0.00066   1.87677
   A12        1.87605   0.00011   0.00000   0.00074   0.00074   1.87678
    D1        1.04720   0.00000   0.00000  -0.00004  -0.00004   1.04716
    D2        3.14159   0.00000   0.00000   0.00001   0.00001  -3.14158
    D3       -1.04725   0.00000   0.00000   0.00007   0.00007  -1.04718
    D4       -3.14156   0.00000   0.00000  -0.00005  -0.00005   3.14158
    D5       -1.04716   0.00000   0.00000   0.00000   0.00000  -1.04716
    D6        1.04718   0.00000   0.00000   0.00006   0.00006   1.04724
    D7       -1.04728   0.00000   0.00000  -0.00001  -0.00001  -1.04729
    D8        1.04711   0.00000   0.00000   0.00003   0.00003   1.04715
    D9        3.14146   0.00000   0.00000   0.00009   0.00009   3.14155
         Item               Value     Threshold  Converged?
 Maximum Force            0.002690     0.000450     NO 
 RMS     Force            0.000700     0.000300     NO 
 Maximum Displacement     0.004571     0.001800     NO 
 RMS     Displacement     0.002819     0.001200     NO 
 Predicted change in Energy=-2.199697D-05
 GradGradGradGradGradGradGradGradGradGradGradGradGradGradGradGradGradGrad

                          Input orientation:                          
 ---------------------------------------------------------------------
 Center     Atomic      Atomic             Coordinates (Angstroms)
 Number     Number       Type             X           Y           Z
 ---------------------------------------------------------------------
      1          6           0       -0.302081    1.118002   -2.055516
      2          1           0       -0.302076    2.139413   -2.454747
      3          1           0        0.582492    0.607271   -2.454706
      4          1           0       -1.186635    0.607252   -2.454719
      5          6           0       -0.302081    1.117956   -0.520781
      6          1           0       -1.186642    1.628694   -0.121581
      7          1           0       -0.302076    0.096538   -0.121554
      8          1           0        0.582498    1.628675   -0.121595
 ---------------------------------------------------------------------
                    Distance matrix (angstroms):
                    1          2          3          4          5
     1  C    0.000000
     2  H    1.096661   0.000000
     3  H    1.096663   1.769158   0.000000
     4  H    1.096661   1.769170   1.769127   0.000000
     5  C    1.534735   2.187144   2.187084   2.187092   0.000000
     6  H    2.187089   2.546950   3.101066   2.546935   1.096659
     7  H    2.187144   3.101149   2.546940   2.546946   1.096666
     8  H    2.187081   2.546944   2.546895   3.101066   1.096661
                    6          7          8
     6  H    0.000000
     7  H    1.769169   0.000000
     8  H    1.769140   1.769157   0.000000
 Stoichiometry    C2H6
 Framework group  C1[X(C2H6)]
 Deg. of freedom    18
 Full point group                 C1      NOp   1
 Largest Abelian subgroup         C1      NOp   1
 Largest concise Abelian subgroup C1      NOp   1
                         Standard orientation:                         
 ---------------------------------------------------------------------
 Center     Atomic      Atomic             Coordinates (Angstroms)
 Number     Number       Type             X           Y           Z
 ---------------------------------------------------------------------
      1          6           0       -0.767367   -0.000005   -0.000003
      2          1           0       -1.166625   -1.021405   -0.000351
      3          1           0       -1.166543    0.510431    0.884747
      4          1           0       -1.166557    0.511063   -0.884379
      5          6           0        0.767368    0.000001   -0.000003
      6          1           0        1.166555   -0.510441   -0.884740
      7          1           0        1.166622    1.021409    0.000357
      8          1           0        1.166541   -0.511035    0.884400
 ---------------------------------------------------------------------
 Rotational constants (GHZ):     80.1071023     19.8063094     19.8061985
 Standard basis: 6-31G (6D, 7F)
 There are    30 symmetry adapted basis functions of A   symmetry.
 Integral buffers will be    131072 words long.
 Raffenetti 2 integral format.
 Two-electron integral symmetry is turned on.
    30 basis functions,    68 primitive gaussians,    30 cartesian basis functions
     9 alpha electrons        9 beta electrons
       nuclear repulsion energy        42.0475980530 Hartrees.
 NAtoms=    8 NActive=    8 NUniq=    8 SFac= 1.00D+00 NAtFMM=   50 NAOKFM=F Big=F
 One-electron integrals computed using PRISM.
 NBasis=    30 RedAO= T  NBF=    30
 NBsUse=    30 1.00D-06 NBFU=    30
 Initial guess read from the read-write file.
 B after Tr=     0.000000    0.000000    0.000000
         Rot=    1.000000    0.000000    0.000000    0.000000 Ang=   0.00 deg.
 Initial guess orbital symmetries:
       Occupied  (A) (A) (A) (A) (A) (A) (A) (A) (A)
       Virtual   (A) (A) (A) (A) (A) (A) (A) (A) (A) (A) (A) (A)
                 (A) (A) (A) (A) (A) (A) (A) (A) (A)
 Requested convergence on RMS density matrix=1.00D-08 within  64 cycles.
 Requested convergence on MAX density matrix=1.00D-06.
 Requested convergence on             energy=1.00D-06.
 No special actions if energy rises.
 Keep R1 ints in memory in canonical form, NReq=1041815.
 SCF Done:  E(RB3LYP) =  -79.8127354717     A.U. after    6 cycles
             Convg  =    0.4024D-08             -V/T =  2.0065
 QCSCF skips out because SCF is already converged.
 Calling FoFJK, ICntrl=      2127 FMM=F ISym2X=0 I1Cent= 0 IOpClX= 0 NMat=1 NMatS=1 NMatT=0.
 ***** Axes restored to original set *****
 -------------------------------------------------------------------
 Center     Atomic                   Forces (Hartrees/Bohr)
 Number     Number              X              Y              Z
 -------------------------------------------------------------------
      1        6           0.000002589   -0.000002976   -0.000509521
      2        1          -0.000001322   -0.000014124    0.000154862
      3        1          -0.000011477    0.000005016    0.000155269
      4        1           0.000010199    0.000005945    0.000155157
      5        6           0.000002476   -0.000003393    0.000508669
      6        1           0.000010743   -0.000004195   -0.000154111
      7        1          -0.000001234    0.000017037   -0.000156069
      8        1          -0.000011976   -0.000003310   -0.000154255
 -------------------------------------------------------------------
 Cartesian Forces:  Max     0.000509521 RMS     0.000166274

 GradGradGradGradGradGradGradGradGradGradGradGradGradGradGradGradGradGrad
 Berny optimization.
 Using GEDIIS/GDIIS optimizer.
 Internal  Forces:  Max     0.000145253 RMS     0.000097278
 Search for a local minimum.
 Step number   2 out of a maximum of   38
 All quantities printed in internal units (Hartrees-Bohrs-Radians)
 Mixed Optimization -- En-DIIS/RFO-DIIS
 Swaping is turned off.
 Update second derivatives using D2CorX and points    1    2
 DE= -2.21D-05 DEPred=-2.20D-05 R= 1.00D+00
 SS=  1.41D+00  RLast= 1.20D-02 DXNew= 5.0454D-01 3.5898D-02
 Trust test= 1.00D+00 RLast= 1.20D-02 DXMaxT set to 3.00D-01
 ITU=  1  0
     Eigenvalues ---    0.00370   0.05462   0.05462   0.05463   0.05463
     Eigenvalues ---    0.14765   0.16000   0.16000   0.16000   0.16000
     Eigenvalues ---    0.16000   0.29360   0.34228   0.34231   0.34231
     Eigenvalues ---    0.34235   0.34239   0.36929
 En-DIIS/RFO-DIIS IScMMF=        0 using points:     2    1
 RFO step:  Lambda=-6.38739490D-07.
 DidBck=F Rises=F RFO-DIIS coefs:    1.00715   -0.00715
 Iteration  1 RMS(Cart)=  0.00073913 RMS(Int)=  0.00000049
 Iteration  2 RMS(Cart)=  0.00000049 RMS(Int)=  0.00000024
 Variable       Old X    -DE/DX   Delta X   Delta X   Delta X     New X
                                  (DIIS)     (GDIIS)  (Total)
    R1        2.07239  -0.00007   0.00002  -0.00012  -0.00010   2.07229
    R2        2.07239  -0.00007   0.00002  -0.00012  -0.00010   2.07229
    R3        2.07239  -0.00007   0.00002  -0.00011  -0.00009   2.07230
    R4        2.90023   0.00004   0.00007   0.00041   0.00048   2.90071
    R5        2.07239  -0.00007   0.00002  -0.00011  -0.00008   2.07230
    R6        2.07240  -0.00007   0.00002  -0.00013  -0.00011   2.07229
    R7        2.07239  -0.00007   0.00002  -0.00011  -0.00009   2.07230
    A1        1.87679   0.00015   0.00000   0.00094   0.00094   1.87773
    A2        1.87681   0.00014   0.00000   0.00092   0.00092   1.87773
    A3        1.94343  -0.00014   0.00000  -0.00088  -0.00089   1.94254
    A4        1.87674   0.00014   0.00001   0.00093   0.00094   1.87768
    A5        1.94334  -0.00013   0.00000  -0.00086  -0.00087   1.94248
    A6        1.94336  -0.00014   0.00000  -0.00087  -0.00088   1.94248
    A7        1.94336  -0.00013  -0.00001  -0.00087  -0.00088   1.94248
    A8        1.94343  -0.00014   0.00000  -0.00088  -0.00088   1.94254
    A9        1.94334  -0.00013   0.00000  -0.00086  -0.00086   1.94248
   A10        1.87681   0.00014   0.00001   0.00093   0.00093   1.87774
   A11        1.87677   0.00014   0.00000   0.00091   0.00092   1.87768
   A12        1.87678   0.00015   0.00001   0.00094   0.00095   1.87773
    D1        1.04716   0.00000   0.00000   0.00000   0.00000   1.04716
    D2       -3.14158   0.00000   0.00000  -0.00001  -0.00001   3.14159
    D3       -1.04718   0.00000   0.00000   0.00001   0.00001  -1.04717
    D4        3.14158   0.00000   0.00000   0.00001   0.00001   3.14159
    D5       -1.04716   0.00000   0.00000   0.00000   0.00000  -1.04717
    D6        1.04724   0.00000   0.00000   0.00002   0.00002   1.04726
    D7       -1.04729   0.00000   0.00000   0.00002   0.00002  -1.04728
    D8        1.04715   0.00000   0.00000   0.00001   0.00001   1.04716
    D9        3.14155   0.00000   0.00000   0.00003   0.00003   3.14159
         Item               Value     Threshold  Converged?
 Maximum Force            0.000145     0.000450     YES
 RMS     Force            0.000097     0.000300     YES
 Maximum Displacement     0.001500     0.001800     YES
 RMS     Displacement     0.000739     0.001200     YES
 Predicted change in Energy=-7.893388D-07
 Optimization completed.
    -- Stationary point found.
                           ----------------------------
                           !   Optimized Parameters   !
                           ! (Angstroms and Degrees)  !
 --------------------------                            --------------------------
 ! Name  Definition              Value          Derivative Info.                !
 --------------------------------------------------------------------------------
 ! R1    R(1,2)                  1.0967         -DE/DX =   -0.0001              !
 ! R2    R(1,3)                  1.0967         -DE/DX =   -0.0001              !
 ! R3    R(1,4)                  1.0967         -DE/DX =   -0.0001              !
 ! R4    R(1,5)                  1.5347         -DE/DX =    0.0                 !
 ! R5    R(5,6)                  1.0967         -DE/DX =   -0.0001              !
 ! R6    R(5,7)                  1.0967         -DE/DX =   -0.0001              !
 ! R7    R(5,8)                  1.0967         -DE/DX =   -0.0001              !
 ! A1    A(2,1,3)              107.5322         -DE/DX =    0.0001              !
 ! A2    A(2,1,4)              107.5334         -DE/DX =    0.0001              !
 ! A3    A(2,1,5)              111.3504         -DE/DX =   -0.0001              !
 ! A4    A(3,1,4)              107.5294         -DE/DX =    0.0001              !
 ! A5    A(3,1,5)              111.3454         -DE/DX =   -0.0001              !
 ! A6    A(4,1,5)              111.3462         -DE/DX =   -0.0001              !
 ! A7    A(1,5,6)              111.3461         -DE/DX =   -0.0001              !
 ! A8    A(1,5,7)              111.3501         -DE/DX =   -0.0001              !
 ! A9    A(1,5,8)              111.3453         -DE/DX =   -0.0001              !
 ! A10   A(6,5,7)              107.533          -DE/DX =    0.0001              !
 ! A11   A(6,5,8)              107.5308         -DE/DX =    0.0001              !
 ! A12   A(7,5,8)              107.5318         -DE/DX =    0.0001              !
 ! D1    D(2,1,5,6)             59.9979         -DE/DX =    0.0                 !
 ! D2    D(2,1,5,7)            180.0006         -DE/DX =    0.0                 !
 ! D3    D(2,1,5,8)            -59.9988         -DE/DX =    0.0                 !
 ! D4    D(3,1,5,6)            179.9993         -DE/DX =    0.0                 !
 ! D5    D(3,1,5,7)            -59.998          -DE/DX =    0.0                 !
 ! D6    D(3,1,5,8)             60.0026         -DE/DX =    0.0                 !
 ! D7    D(4,1,5,6)            -60.0056         -DE/DX =    0.0                 !
 ! D8    D(4,1,5,7)             59.9971         -DE/DX =    0.0                 !
 ! D9    D(4,1,5,8)            179.9977         -DE/DX =    0.0                 !
 --------------------------------------------------------------------------------
 GradGradGradGradGradGradGradGradGradGradGradGradGradGradGradGradGradGrad

                          Input orientation:                          
 ---------------------------------------------------------------------
 Center     Atomic      Atomic             Coordinates (Angstroms)
 Number     Number       Type             X           Y           Z
 ---------------------------------------------------------------------
      1          6           0       -0.302081    1.118002   -2.055516
      2          1           0       -0.302076    2.139413   -2.454747
      3          1           0        0.582492    0.607271   -2.454706
      4          1           0       -1.186635    0.607252   -2.454719
      5          6           0       -0.302081    1.117956   -0.520781
      6          1           0       -1.186642    1.628694   -0.121581
      7          1           0       -0.302076    0.096538   -0.121554
      8          1           0        0.582498    1.628675   -0.121595
 ---------------------------------------------------------------------
                    Distance matrix (angstroms):
                    1          2          3          4          5
     1  C    0.000000
     2  H    1.096661   0.000000
     3  H    1.096663   1.769158   0.000000
     4  H    1.096661   1.769170   1.769127   0.000000
     5  C    1.534735   2.187144   2.187084   2.187092   0.000000
     6  H    2.187089   2.546950   3.101066   2.546935   1.096659
     7  H    2.187144   3.101149   2.546940   2.546946   1.096666
     8  H    2.187081   2.546944   2.546895   3.101066   1.096661
                    6          7          8
     6  H    0.000000
     7  H    1.769169   0.000000
     8  H    1.769140   1.769157   0.000000
 Stoichiometry    C2H6
 Framework group  C1[X(C2H6)]
 Deg. of freedom    18
 Full point group                 C1      NOp   1
 Largest Abelian subgroup         C1      NOp   1
 Largest concise Abelian subgroup C1      NOp   1
                         Standard orientation:                         
 ---------------------------------------------------------------------
 Center     Atomic      Atomic             Coordinates (Angstroms)
 Number     Number       Type             X           Y           Z
 ---------------------------------------------------------------------
      1          6           0       -0.767367   -0.000005   -0.000003
      2          1           0       -1.166625   -1.021405   -0.000351
      3          1           0       -1.166543    0.510431    0.884747
      4          1           0       -1.166557    0.511063   -0.884379
      5          6           0        0.767368    0.000001   -0.000003
      6          1           0        1.166555   -0.510441   -0.884740
      7          1           0        1.166622    1.021409    0.000357
      8          1           0        1.166541   -0.511035    0.884400
 ---------------------------------------------------------------------
 Rotational constants (GHZ):     80.1071023     19.8063094     19.8061985

 **********************************************************************

            Population analysis using the SCF density.

 **********************************************************************

 Orbital symmetries:
       Occupied  (A) (A) (A) (A) (A) (A) (A) (A) (A)
       Virtual   (A) (A) (A) (A) (A) (A) (A) (A) (A) (A) (A) (A)
                 (A) (A) (A) (A) (A) (A) (A) (A) (A)
 The electronic state is 1-A.
 Alpha  occ. eigenvalues --  -10.16692 -10.16680  -0.74935  -0.61501  -0.43130
 Alpha  occ. eigenvalues --   -0.43129  -0.36417  -0.34014  -0.34013
 Alpha virt. eigenvalues --    0.10396   0.15462   0.16328   0.16328   0.18966
 Alpha virt. eigenvalues --    0.18967   0.23950   0.54003   0.56103   0.56103
 Alpha virt. eigenvalues --    0.64870   0.64874   0.67361   0.91690   0.92751
 Alpha virt. eigenvalues --    0.92752   0.97266   0.97267   0.97857   1.08970
 Alpha virt. eigenvalues --    1.44473
          Condensed to atoms (all electrons):
              1          2          3          4          5          6
     1  C    5.033142   0.380755   0.380754   0.380755   0.336404  -0.036765
     2  H    0.380755   0.592855  -0.033901  -0.033900  -0.036758  -0.003759
     3  H    0.380754  -0.033901   0.592867  -0.033904  -0.036765   0.004627
     4  H    0.380755  -0.033900  -0.033904   0.592863  -0.036764  -0.003759
     5  C    0.336404  -0.036758  -0.036765  -0.036764   5.033140   0.380755
     6  H   -0.036765  -0.003759   0.004627  -0.003759   0.380755   0.592861
     7  H   -0.036758   0.004626  -0.003759  -0.003759   0.380755  -0.033900
     8  H   -0.036765  -0.003759  -0.003760   0.004627   0.380755  -0.033902
              7          8
     1  C   -0.036758  -0.036765
     2  H    0.004626  -0.003759
     3  H   -0.003759  -0.003760
     4  H   -0.003759   0.004627
     5  C    0.380755   0.380755
     6  H   -0.033900  -0.033902
     7  H    0.592857  -0.033902
     8  H   -0.033902   0.592865
 Mulliken atomic charges:
              1
     1  C   -0.401522
     2  H    0.133841
     3  H    0.133840
     4  H    0.133841
     5  C   -0.401521
     6  H    0.133842
     7  H    0.133840
     8  H    0.133841
 Sum of Mulliken atomic charges =   0.00000
 Mulliken charges with hydrogens summed into heavy atoms:
              1
     1  C    0.000000
     5  C    0.000000
 Sum of Mulliken charges with hydrogens summed into heavy atoms =   0.00000
 Electronic spatial extent (au):  <R**2>=            110.0641
 Charge=              0.0000 electrons
 Dipole moment (field-independent basis, Debye):
    X=              0.0000    Y=              0.0000    Z=              0.0000  Tot=              0.0000
 Quadrupole moment (field-independent basis, Debye-Ang):
   XX=            -15.1905   YY=            -14.8108   ZZ=            -14.8110
   XY=              0.0001   XZ=              0.0000   YZ=              0.0000
 Traceless Quadrupole moment (field-independent basis, Debye-Ang):
   XX=             -0.2531   YY=              0.1267   ZZ=              0.1264
   XY=              0.0001   XZ=              0.0000   YZ=              0.0000
 Octapole moment (field-independent basis, Debye-Ang**2):
  XXX=              0.0000  YYY=              0.0000  ZZZ=              0.0000  XYY=              0.0000
  XXY=              0.0000  XXZ=              0.0000  XZZ=              0.0000  YZZ=              0.0000
  YYZ=              0.0000  XYZ=              0.0001
 Hexadecapole moment (field-independent basis, Debye-Ang**3):
 XXXX=            -92.9539 YYYY=            -28.8664 ZZZZ=            -28.8661 XXXY=              0.0005
 XXXZ=              0.0000 YYYX=              1.1239 YYYZ=              0.0000 ZZZX=             -0.0012
 ZZZY=              0.0000 XXYY=            -19.3241 XXZZ=            -19.3247 YYZZ=             -9.6220
 XXYZ=              0.0000 YYXZ=              0.0012 ZZXY=             -1.1238
 N-N= 4.204759805301D+01 E-N=-2.681903750837D+02  KE= 7.929883637476D+01
 1\1\GINC-COMPUTE-0-2\FOpt\RB3LYP\6-31G\C2H6\VIJI\04-Jun-2025\0\\# opt 
 freq b3lyp/6-31g geom=connectivity scf=xqc\\C2H6_M\\0,1\C,-0.302081311
 9,1.1180023238,-2.0555164299\H,-0.3020755233,2.1394129977,-2.454747005
 4\H,0.5824919012,0.6072706893,-2.4547060685\H,-1.186635071,0.607251732
 4,-2.4547194977\C,-0.3020812975,1.1179557436,-0.5207810235\H,-1.186641
 5529,1.6286938655,-0.1215811887\H,-0.302075541,0.0965377114,-0.1215541
 75\H,0.5824983963,1.6286749364,-0.1215946112\\Version=AM64L-G09RevB.01
 \State=1-A\HF=-79.8127355\RMSD=4.024e-09\RMSF=1.663e-04\Dipole=0.00000
 53,-0.0000014,-0.0000009\Quadrupole=0.0940089,0.0941752,-0.1881841,0.,
 0.0000001,-0.0000484\PG=C01 [X(C2H6)]\\@


 "WHERE SHALL I START, PLEASE YOUR MAJESTY?" HE ASKED.
 "BEGIN AT THE BEGINNING," THE KING SAID GRAVELY,
 "AND GO ON TILL YOU COME TO THE END: THEN STOP." 

                                      -- LEWIS CARROLL
 Job cpu time:  0 days  0 hours  0 minutes 16.3 seconds.
 File lengths (MBytes):  RWF=      5 Int=      0 D2E=      0 Chk=      1 Scr=      1
 Normal termination of Gaussian 09 at Wed Jun  4 13:09:15 2025.
 Link1:  Proceeding to internal job step number  2.
 -----------------------------------------------------------------
 #N Geom=AllCheck Guess=TCheck SCRF=Check GenChk RB3LYP/6-31G Freq
 -----------------------------------------------------------------
 1/10=4,29=7,30=1,38=1,40=1/1,3;
 2/12=2,40=1/2;
 3/5=1,6=6,11=2,14=-4,16=1,25=1,30=1,70=2,71=2,74=-5,116=1/1,2,3;
 4/5=101/1;
 5/5=2,8=3,13=1,98=1/2,8;
 8/6=4,10=90,11=11/1;
 11/6=1,8=1,9=11,15=111,16=1/1,2,10;
 10/6=1/2;
 6/7=2,8=2,9=2,10=2,18=1,28=1/1;
 7/8=1,10=1,25=1/1,2,3,16;
 1/10=4,30=1/3;
 99//99;
 ------
 C2H6_M
 ------
 Redundant internal coordinates taken from checkpoint file:
 /scratch/Gau-21804.chk
 Charge =  0 Multiplicity = 1
 C,0,-0.3020813119,1.1180023238,-2.0555164299
 H,0,-0.3020755233,2.1394129977,-2.4547470054
 H,0,0.5824919012,0.6072706893,-2.4547060685
 H,0,-1.186635071,0.6072517324,-2.4547194977
 C,0,-0.3020812975,1.1179557436,-0.5207810235
 H,0,-1.1866415529,1.6286938655,-0.1215811887
 H,0,-0.302075541,0.0965377114,-0.121554175
 H,0,0.5824983963,1.6286749364,-0.1215946112
 Recover connectivity data from disk.

 GradGradGradGradGradGradGradGradGradGradGradGradGradGradGradGradGradGrad
 Berny optimization.
 Initialization pass.
                           ----------------------------
                           !    Initial Parameters    !
                           ! (Angstroms and Degrees)  !
 --------------------------                            --------------------------
 ! Name  Definition              Value          Derivative Info.                !
 --------------------------------------------------------------------------------
 ! R1    R(1,2)                  1.0967         calculate D2E/DX2 analytically  !
 ! R2    R(1,3)                  1.0967         calculate D2E/DX2 analytically  !
 ! R3    R(1,4)                  1.0967         calculate D2E/DX2 analytically  !
 ! R4    R(1,5)                  1.5347         calculate D2E/DX2 analytically  !
 ! R5    R(5,6)                  1.0967         calculate D2E/DX2 analytically  !
 ! R6    R(5,7)                  1.0967         calculate D2E/DX2 analytically  !
 ! R7    R(5,8)                  1.0967         calculate D2E/DX2 analytically  !
 ! A1    A(2,1,3)              107.5322         calculate D2E/DX2 analytically  !
 ! A2    A(2,1,4)              107.5334         calculate D2E/DX2 analytically  !
 ! A3    A(2,1,5)              111.3504         calculate D2E/DX2 analytically  !
 ! A4    A(3,1,4)              107.5294         calculate D2E/DX2 analytically  !
 ! A5    A(3,1,5)              111.3454         calculate D2E/DX2 analytically  !
 ! A6    A(4,1,5)              111.3462         calculate D2E/DX2 analytically  !
 ! A7    A(1,5,6)              111.3461         calculate D2E/DX2 analytically  !
 ! A8    A(1,5,7)              111.3501         calculate D2E/DX2 analytically  !
 ! A9    A(1,5,8)              111.3453         calculate D2E/DX2 analytically  !
 ! A10   A(6,5,7)              107.533          calculate D2E/DX2 analytically  !
 ! A11   A(6,5,8)              107.5308         calculate D2E/DX2 analytically  !
 ! A12   A(7,5,8)              107.5318         calculate D2E/DX2 analytically  !
 ! D1    D(2,1,5,6)             59.9979         calculate D2E/DX2 analytically  !
 ! D2    D(2,1,5,7)           -179.9994         calculate D2E/DX2 analytically  !
 ! D3    D(2,1,5,8)            -59.9988         calculate D2E/DX2 analytically  !
 ! D4    D(3,1,5,6)            179.9993         calculate D2E/DX2 analytically  !
 ! D5    D(3,1,5,7)            -59.998          calculate D2E/DX2 analytically  !
 ! D6    D(3,1,5,8)             60.0026         calculate D2E/DX2 analytically  !
 ! D7    D(4,1,5,6)            -60.0056         calculate D2E/DX2 analytically  !
 ! D8    D(4,1,5,7)             59.9971         calculate D2E/DX2 analytically  !
 ! D9    D(4,1,5,8)            179.9977         calculate D2E/DX2 analytically  !
 --------------------------------------------------------------------------------
 Trust Radius=3.00D-01 FncErr=1.00D-07 GrdErr=1.00D-07
 Number of steps in this run=      2 maximum allowed number of steps=      2.
 GradGradGradGradGradGradGradGradGradGradGradGradGradGradGradGradGradGrad

                          Input orientation:                          
 ---------------------------------------------------------------------
 Center     Atomic      Atomic             Coordinates (Angstroms)
 Number     Number       Type             X           Y           Z
 ---------------------------------------------------------------------
      1          6           0       -0.302081    1.118002   -2.055516
      2          1           0       -0.302076    2.139413   -2.454747
      3          1           0        0.582492    0.607271   -2.454706
      4          1           0       -1.186635    0.607252   -2.454719
      5          6           0       -0.302081    1.117956   -0.520781
      6          1           0       -1.186642    1.628694   -0.121581
      7          1           0       -0.302076    0.096538   -0.121554
      8          1           0        0.582498    1.628675   -0.121595
 ---------------------------------------------------------------------
                    Distance matrix (angstroms):
                    1          2          3          4          5
     1  C    0.000000
     2  H    1.096661   0.000000
     3  H    1.096663   1.769158   0.000000
     4  H    1.096661   1.769170   1.769127   0.000000
     5  C    1.534735   2.187144   2.187084   2.187092   0.000000
     6  H    2.187089   2.546950   3.101066   2.546935   1.096659
     7  H    2.187144   3.101149   2.546940   2.546946   1.096666
     8  H    2.187081   2.546944   2.546895   3.101066   1.096661
                    6          7          8
     6  H    0.000000
     7  H    1.769169   0.000000
     8  H    1.769140   1.769157   0.000000
 Stoichiometry    C2H6
 Framework group  C1[X(C2H6)]
 Deg. of freedom    18
 Full point group                 C1      NOp   1
 Largest Abelian subgroup         C1      NOp   1
 Largest concise Abelian subgroup C1      NOp   1
                         Standard orientation:                         
 ---------------------------------------------------------------------
 Center     Atomic      Atomic             Coordinates (Angstroms)
 Number     Number       Type             X           Y           Z
 ---------------------------------------------------------------------
      1          6           0       -0.767367   -0.000005   -0.000003
      2          1           0       -1.166625   -1.021405   -0.000351
      3          1           0       -1.166543    0.510431    0.884747
      4          1           0       -1.166557    0.511063   -0.884379
      5          6           0        0.767368    0.000001   -0.000003
      6          1           0        1.166555   -0.510441   -0.884740
      7          1           0        1.166622    1.021409    0.000357
      8          1           0        1.166541   -0.511035    0.884400
 ---------------------------------------------------------------------
 Rotational constants (GHZ):     80.1071023     19.8063094     19.8061985
 Standard basis: 6-31G (6D, 7F)
 There are    30 symmetry adapted basis functions of A   symmetry.
 Integral buffers will be    131072 words long.
 Raffenetti 2 integral format.
 Two-electron integral symmetry is turned on.
    30 basis functions,    68 primitive gaussians,    30 cartesian basis functions
     9 alpha electrons        9 beta electrons
       nuclear repulsion energy        42.0475980530 Hartrees.
 NAtoms=    8 NActive=    8 NUniq=    8 SFac= 1.00D+00 NAtFMM=   50 NAOKFM=F Big=F
 One-electron integrals computed using PRISM.
 NBasis=    30 RedAO= T  NBF=    30
 NBsUse=    30 1.00D-06 NBFU=    30
 Initial guess read from the checkpoint file:  /scratch/Gau-21804.chk
 B after Tr=     0.000000    0.000000    0.000000
         Rot=    1.000000    0.000000    0.000000    0.000000 Ang=   0.00 deg.
 Initial guess orbital symmetries:
       Occupied  (A) (A) (A) (A) (A) (A) (A) (A) (A)
       Virtual   (A) (A) (A) (A) (A) (A) (A) (A) (A) (A) (A) (A)
                 (A) (A) (A) (A) (A) (A) (A) (A) (A)
 Requested convergence on RMS density matrix=1.00D-08 within  64 cycles.
 Requested convergence on MAX density matrix=1.00D-06.
 Requested convergence on             energy=1.00D-06.
 No special actions if energy rises.
 Keep R1 ints in memory in canonical form, NReq=1041815.
 SCF Done:  E(RB3LYP) =  -79.8127354717     A.U. after    1 cycles
             Convg  =    0.2985D-08             -V/T =  2.0065
 QCSCF skips out because SCF is already converged.
 Range of M.O.s used for correlation:     1    30
 NBasis=    30 NAE=     9 NBE=     9 NFC=     0 NFV=     0
 NROrb=     30 NOA=     9 NOB=     9 NVA=    21 NVB=    21
 Symmetrizing basis deriv contribution to polar:
 IMax=3 JMax=2 DiffMx= 0.00D+00
 G2DrvN: will do     9 centers at a time, making    1 passes doing MaxLOS=1.
 Calling FoFCou, ICntrl=  3107 FMM=F I1Cent=   0 AccDes= 0.00D+00.
 FoFDir/FoFCou used for L=0 through L=1.
 End of G2Drv Frequency-dependent properties file   721 does not exist.
 End of G2Drv Frequency-dependent properties file   722 does not exist.
          IDoAtm=11111111
          Differentiating once with respect to electric field.
                with respect to dipole field.
          Differentiating once with respect to nuclear coordinates.
          Keep R1 ints in memory in canonical form, NReq=910643.
          There are    27 degrees of freedom in the 1st order CPHF.  IDoFFX=5.
     24 vectors produced by pass  0 Test12= 7.00D-16 3.70D-09 XBig12= 1.22D+01 1.90D+00.
 AX will form    24 AO Fock derivatives at one time.
     24 vectors produced by pass  1 Test12= 7.00D-16 3.70D-09 XBig12= 1.11D-01 1.44D-01.
     24 vectors produced by pass  2 Test12= 7.00D-16 3.70D-09 XBig12= 5.52D-05 2.98D-03.
     24 vectors produced by pass  3 Test12= 7.00D-16 3.70D-09 XBig12= 2.67D-08 5.88D-05.
     17 vectors produced by pass  4 Test12= 7.00D-16 3.70D-09 XBig12= 8.55D-12 1.16D-06.
      3 vectors produced by pass  5 Test12= 7.00D-16 3.70D-09 XBig12= 1.43D-15 1.70D-08.
 Inverted reduced A of dimension   116 with in-core refinement.
 Isotropic polarizability for W=    0.000000       22.66 Bohr**3.
 End of Minotr Frequency-dependent properties file   721 does not exist.
 End of Minotr Frequency-dependent properties file   722 does not exist.

 **********************************************************************

            Population analysis using the SCF density.

 **********************************************************************

 Orbital symmetries:
       Occupied  (A) (A) (A) (A) (A) (A) (A) (A) (A)
       Virtual   (A) (A) (A) (A) (A) (A) (A) (A) (A) (A) (A) (A)
                 (A) (A) (A) (A) (A) (A) (A) (A) (A)
 The electronic state is 1-A.
 Alpha  occ. eigenvalues --  -10.16692 -10.16680  -0.74935  -0.61501  -0.43130
 Alpha  occ. eigenvalues --   -0.43129  -0.36417  -0.34014  -0.34013
 Alpha virt. eigenvalues --    0.10396   0.15462   0.16328   0.16328   0.18966
 Alpha virt. eigenvalues --    0.18967   0.23950   0.54003   0.56103   0.56103
 Alpha virt. eigenvalues --    0.64870   0.64874   0.67361   0.91690   0.92751
 Alpha virt. eigenvalues --    0.92752   0.97266   0.97267   0.97857   1.08970
 Alpha virt. eigenvalues --    1.44473
          Condensed to atoms (all electrons):
              1          2          3          4          5          6
     1  C    5.033142   0.380755   0.380754   0.380755   0.336404  -0.036765
     2  H    0.380755   0.592855  -0.033901  -0.033900  -0.036758  -0.003759
     3  H    0.380754  -0.033901   0.592867  -0.033904  -0.036765   0.004627
     4  H    0.380755  -0.033900  -0.033904   0.592863  -0.036764  -0.003759
     5  C    0.336404  -0.036758  -0.036765  -0.036764   5.033141   0.380755
     6  H   -0.036765  -0.003759   0.004627  -0.003759   0.380755   0.592861
     7  H   -0.036758   0.004626  -0.003759  -0.003759   0.380755  -0.033900
     8  H   -0.036765  -0.003759  -0.003760   0.004627   0.380755  -0.033902
              7          8
     1  C   -0.036758  -0.036765
     2  H    0.004626  -0.003759
     3  H   -0.003759  -0.003760
     4  H   -0.003759   0.004627
     5  C    0.380755   0.380755
     6  H   -0.033900  -0.033902
     7  H    0.592857  -0.033902
     8  H   -0.033902   0.592865
 Mulliken atomic charges:
              1
     1  C   -0.401522
     2  H    0.133841
     3  H    0.133840
     4  H    0.133841
     5  C   -0.401522
     6  H    0.133842
     7  H    0.133840
     8  H    0.133841
 Sum of Mulliken atomic charges =   0.00000
 Mulliken charges with hydrogens summed into heavy atoms:
              1
     1  C    0.000000
     5  C    0.000000
 Sum of Mulliken charges with hydrogens summed into heavy atoms =   0.00000
 APT atomic charges:
              1
     1  C    0.084841
     2  H   -0.028262
     3  H   -0.028291
     4  H   -0.028289
     5  C    0.084842
     6  H   -0.028287
     7  H   -0.028264
     8  H   -0.028290
 Sum of APT charges=   0.00000
 APT Atomic charges with hydrogens summed into heavy atoms:
              1
     1  C   -0.000001
     2  H    0.000000
     3  H    0.000000
     4  H    0.000000
     5  C    0.000001
     6  H    0.000000
     7  H    0.000000
     8  H    0.000000
 Sum of APT charges=   0.00000
 Electronic spatial extent (au):  <R**2>=            110.0641
 Charge=              0.0000 electrons
 Dipole moment (field-independent basis, Debye):
    X=              0.0000    Y=              0.0000    Z=              0.0000  Tot=              0.0000
 Quadrupole moment (field-independent basis, Debye-Ang):
   XX=            -15.1905   YY=            -14.8108   ZZ=            -14.8110
   XY=              0.0001   XZ=              0.0000   YZ=              0.0000
 Traceless Quadrupole moment (field-independent basis, Debye-Ang):
   XX=             -0.2531   YY=              0.1267   ZZ=              0.1264
   XY=              0.0001   XZ=              0.0000   YZ=              0.0000
 Octapole moment (field-independent basis, Debye-Ang**2):
  XXX=              0.0000  YYY=              0.0000  ZZZ=              0.0000  XYY=              0.0000
  XXY=              0.0000  XXZ=              0.0000  XZZ=              0.0000  YZZ=              0.0000
  YYZ=              0.0000  XYZ=              0.0001
 Hexadecapole moment (field-independent basis, Debye-Ang**3):
 XXXX=            -92.9539 YYYY=            -28.8664 ZZZZ=            -28.8661 XXXY=              0.0005
 XXXZ=              0.0000 YYYX=              1.1239 YYYZ=              0.0000 ZZZX=             -0.0012
 ZZZY=              0.0000 XXYY=            -19.3241 XXZZ=            -19.3247 YYZZ=             -9.6220
 XXYZ=              0.0000 YYXZ=              0.0012 ZZXY=             -1.1238
 N-N= 4.204759805301D+01 E-N=-2.681903750754D+02  KE= 7.929883637203D+01
  Exact polarizability:  23.456   0.000  22.261   0.000   0.000  22.261
 Approx polarizability:  26.380   0.000  27.822   0.000   0.000  27.821
 Calling FoFJK, ICntrl=    100127 FMM=F ISym2X=0 I1Cent= 0 IOpClX= 0 NMat=1 NMatS=1 NMatT=0.
 Full mass-weighted force constant matrix:
 Low frequencies ---  -29.5770  -16.3872    0.0002    0.0008    0.0013   17.7289
 Low frequencies ---  303.9014  855.8004  857.0200
 Harmonic frequencies (cm**-1), IR intensities (KM/Mole), Raman scattering
 activities (A**4/AMU), depolarization ratios for plane and unpolarized
 incident light, reduced masses (AMU), force constants (mDyne/A),
 and normal coordinates:
                     1                      2                      3
                     A                      A                      A
 Frequencies --   303.9014               855.8004               857.0200
 Red. masses --     1.0078                 1.0575                 1.0576
 Frc consts  --     0.0548                 0.4563                 0.4577
 IR Inten    --     0.0000                 7.0247                 7.0379
  Atom  AN      X      Y      Z        X      Y      Z        X      Y      Z
     1   6     0.00   0.00   0.00     0.00  -0.05   0.00     0.00   0.00  -0.05
     2   1     0.00   0.00   0.41    -0.51   0.16   0.00     0.00   0.00   0.22
     3   1     0.00   0.35  -0.20     0.25   0.20  -0.02     0.44  -0.02   0.17
     4   1     0.00  -0.35  -0.20     0.25   0.20   0.03    -0.44   0.02   0.17
     5   6     0.00   0.00   0.00     0.00  -0.05   0.00     0.00   0.00  -0.05
     6   1     0.00   0.35  -0.20     0.25   0.20  -0.02     0.44  -0.02   0.17
     7   1     0.00   0.00   0.41    -0.51   0.16   0.00     0.00   0.00   0.22
     8   1     0.00  -0.35  -0.20     0.25   0.20   0.03    -0.44   0.02   0.17
                     4                      5                      6
                     A                      A                      A
 Frequencies --  1014.1592              1252.2321              1253.1167
 Red. masses --     3.6996                 1.4601                 1.4608
 Frc consts  --     2.2419                 1.3490                 1.3516
 IR Inten    --     0.0000                 0.0000                 0.0000
  Atom  AN      X      Y      Z        X      Y      Z        X      Y      Z
     1   6     0.35   0.00   0.00     0.00   0.14   0.00     0.00   0.00   0.14
     2   1     0.35   0.00   0.00     0.51  -0.07   0.00     0.00   0.00  -0.24
     3   1     0.36   0.00   0.00    -0.25  -0.19   0.07    -0.44   0.07  -0.11
     4   1     0.36   0.00   0.00    -0.25  -0.19  -0.07     0.44  -0.07  -0.11
     5   6    -0.35   0.00   0.00     0.00  -0.14   0.00     0.00   0.00  -0.14
     6   1    -0.36   0.00   0.00     0.25   0.19  -0.07     0.44  -0.07   0.11
     7   1    -0.35   0.00   0.00    -0.51   0.07   0.00     0.00   0.00   0.24
     8   1    -0.36   0.00   0.00     0.25   0.19   0.07    -0.44   0.07   0.11
                     7                      8                      9
                     A                      A                      A
 Frequencies --  1463.8205              1465.1898              1547.8032
 Red. masses --     1.2016                 1.1993                 1.0240
 Frc consts  --     1.5169                 1.5170                 1.4454
 IR Inten    --     0.0000                 3.2487                 0.0000
  Atom  AN      X      Y      Z        X      Y      Z        X      Y      Z
     1   6    -0.09   0.00   0.00     0.09   0.00   0.00     0.00  -0.03   0.00
     2   1     0.37  -0.17   0.00    -0.37   0.16   0.00     0.27  -0.11   0.00
     3   1     0.37   0.08   0.14    -0.37  -0.08  -0.14    -0.14   0.34  -0.26
     4   1     0.37   0.08  -0.14    -0.37  -0.08   0.14    -0.14   0.34   0.26
     5   6     0.09   0.00   0.00     0.09   0.00   0.00     0.00   0.03   0.00
     6   1    -0.37  -0.08  -0.14    -0.37  -0.08  -0.14     0.14  -0.34   0.26
     7   1    -0.37   0.17   0.00    -0.37   0.16   0.00    -0.27   0.11   0.00
     8   1    -0.37  -0.08   0.14    -0.37  -0.08   0.14     0.14  -0.34  -0.26
                    10                     11                     12
                     A                      A                      A
 Frequencies --  1548.1582              1552.4544              1552.8037
 Red. masses --     1.0237                 1.0640                 1.0641
 Frc consts  --     1.4456                 1.5109                 1.5117
 IR Inten    --     0.0000                11.1944                11.1819
  Atom  AN      X      Y      Z        X      Y      Z        X      Y      Z
     1   6     0.00   0.00  -0.03     0.00   0.00  -0.05     0.00   0.05   0.00
     2   1     0.00   0.00   0.49     0.00   0.00   0.52    -0.22   0.12   0.00
     3   1    -0.24  -0.26   0.04    -0.19  -0.28   0.04     0.11  -0.36   0.28
     4   1     0.24   0.26   0.04     0.19   0.27   0.04     0.11  -0.36  -0.28
     5   6     0.00   0.00   0.03     0.00   0.00  -0.05     0.00   0.05   0.00
     6   1     0.24   0.26  -0.04    -0.19  -0.28   0.04     0.11  -0.36   0.28
     7   1     0.00   0.00  -0.49     0.00   0.00   0.52    -0.22   0.12   0.00
     8   1    -0.24  -0.26  -0.04     0.19   0.27   0.04     0.11  -0.36  -0.28
                    13                     14                     15
                     A                      A                      A
 Frequencies --  3040.1942              3042.3879              3097.3138
 Red. masses --     1.0333                 1.0360                 1.0991
 Frc consts  --     5.6272                 5.6499                 6.2126
 IR Inten    --    63.8487                 0.0002                 0.0000
  Atom  AN      X      Y      Z        X      Y      Z        X      Y      Z
     1   6    -0.03   0.00   0.00     0.04   0.00   0.00     0.00  -0.06   0.00
     2   1     0.14   0.38   0.00    -0.14  -0.39   0.00     0.20   0.54   0.00
     3   1     0.13  -0.19  -0.33    -0.14   0.19   0.33    -0.10   0.12   0.24
     4   1     0.13  -0.19   0.33    -0.14   0.19  -0.33    -0.10   0.12  -0.24
     5   6    -0.03   0.00   0.00    -0.04   0.00   0.00     0.00   0.06   0.00
     6   1     0.14  -0.19  -0.33     0.14  -0.19  -0.33     0.10  -0.12  -0.24
     7   1     0.14   0.39   0.00     0.14   0.39   0.00    -0.20  -0.54   0.00
     8   1     0.14  -0.19   0.33     0.14  -0.19   0.33     0.10  -0.12   0.24
                    16                     17                     18
                     A                      A                      A
 Frequencies --  3097.5593              3124.7866              3124.9591
 Red. masses --     1.0991                 1.1009                 1.1009
 Frc consts  --     6.2133                 6.3332                 6.3339
 IR Inten    --     0.0000                81.7526                81.7873
  Atom  AN      X      Y      Z        X      Y      Z        X      Y      Z
     1   6     0.00   0.00  -0.06     0.00   0.07   0.00     0.00   0.00   0.07
     2   1     0.00   0.00  -0.02    -0.21  -0.54   0.00     0.00   0.00   0.02
     3   1    -0.18   0.24   0.40     0.10  -0.12  -0.24     0.18  -0.24  -0.40
     4   1     0.18  -0.24   0.40     0.10  -0.12   0.24    -0.18   0.24  -0.40
     5   6     0.00   0.00   0.06     0.00   0.07   0.00     0.00   0.00   0.07
     6   1     0.18  -0.24  -0.40     0.10  -0.12  -0.24     0.18  -0.24  -0.40
     7   1     0.00   0.00   0.02    -0.21  -0.53   0.00     0.00   0.00   0.02
     8   1    -0.18   0.24  -0.40     0.10  -0.12   0.24    -0.18   0.24  -0.40

 -------------------
 - Thermochemistry -
 -------------------
 Temperature   298.150 Kelvin.  Pressure   1.00000 Atm.
 Atom     1 has atomic number  6 and mass  12.00000
 Atom     2 has atomic number  1 and mass   1.00783
 Atom     3 has atomic number  1 and mass   1.00783
 Atom     4 has atomic number  1 and mass   1.00783
 Atom     5 has atomic number  6 and mass  12.00000
 Atom     6 has atomic number  1 and mass   1.00783
 Atom     7 has atomic number  1 and mass   1.00783
 Atom     8 has atomic number  1 and mass   1.00783
 Molecular mass:    30.04695 amu.
 Principal axes and moments of inertia in atomic units:
                           1         2         3
     Eigenvalues --    22.52910  91.11951  91.12002
           X            1.00000   0.00000   0.00000
           Y            0.00000   1.00000   0.00000
           Z            0.00000   0.00000   1.00000
 This molecule is an asymmetric top.
 Rotational symmetry number  1.
 Rotational temperatures (Kelvin)      3.84453     0.95055     0.95055
 Rotational constants (GHZ):          80.10710    19.80631    19.80620
 Zero-point vibrational energy     198542.2 (Joules/Mol)
                                   47.45272 (Kcal/Mol)
 Warning -- explicit consideration of   1 degrees of freedom as
           vibrations may cause significant error
 Vibrational temperatures:    437.25  1231.30  1233.06  1459.15  1801.68
          (Kelvin)           1802.95  2106.11  2108.08  2226.94  2227.45
                             2233.63  2234.14  4374.16  4377.31  4456.34
                             4456.69  4495.87  4496.11
 
 Zero-point correction=                           0.075621 (Hartree/Particle)
 Thermal correction to Energy=                    0.079085
 Thermal correction to Enthalpy=                  0.080029
 Thermal correction to Gibbs Free Energy=         0.052497
 Sum of electronic and zero-point Energies=            -79.737115
 Sum of electronic and thermal Energies=               -79.733650
 Sum of electronic and thermal Enthalpies=             -79.732706
 Sum of electronic and thermal Free Energies=          -79.760238
 
                     E (Thermal)             CV                S
                      KCal/Mol        Cal/Mol-Kelvin    Cal/Mol-Kelvin
 Total                   49.627              9.882             57.946
 Electronic               0.000              0.000              0.000
 Translational            0.889              2.981             36.134
 Rotational               0.889              2.981             19.864
 Vibrational             47.849              3.920              1.948
 Vibration     1          0.695              1.666              1.395
                       Q            Log10(Q)             Ln(Q)
 Total Bot       0.712775D-24        -24.147047        -55.600631
 Total V=0       0.432510D+11         10.635996         24.490287
 Vib (Bot)       0.224888D-34        -34.648034        -79.780047
 Vib (Bot)    1  0.624404D+00         -0.204535         -0.470958
 Vib (V=0)       0.136461D+01          0.135010          0.310871
 Vib (V=0)    1  0.129992D+01          0.113918          0.262307
 Electronic      0.100000D+01          0.000000          0.000000
 Translational   0.647375D+07          6.811156         15.683266
 Rotational      0.489588D+04          3.689831          8.496150
 ***** Axes restored to original set *****
 -------------------------------------------------------------------
 Center     Atomic                   Forces (Hartrees/Bohr)
 Number     Number              X              Y              Z
 -------------------------------------------------------------------
      1        6           0.000002597   -0.000002977   -0.000509531
      2        1          -0.000001322   -0.000014125    0.000154866
      3        1          -0.000011481    0.000005018    0.000155273
      4        1           0.000010197    0.000005944    0.000155159
      5        6           0.000002483   -0.000003394    0.000508659
      6        1           0.000010738   -0.000004193   -0.000154107
      7        1          -0.000001234    0.000017036   -0.000156065
      8        1          -0.000011978   -0.000003310   -0.000154253
 -------------------------------------------------------------------
 Cartesian Forces:  Max     0.000509531 RMS     0.000166274

 GradGradGradGradGradGradGradGradGradGradGradGradGradGradGradGradGradGrad
 Berny optimization.
 Internal  Forces:  Max     0.000145251 RMS     0.000097278
 Search for a local minimum.
 Step number   1 out of a maximum of    2
 All quantities printed in internal units (Hartrees-Bohrs-Radians)
 Second derivative matrix not updated -- analytic derivatives used.
 ITU=  0
     Eigenvalues ---    0.00218   0.04850   0.04852   0.05032   0.05032
     Eigenvalues ---    0.12380   0.12996   0.13023   0.13416   0.18354
     Eigenvalues ---    0.18371   0.31537   0.33574   0.33585   0.33866
     Eigenvalues ---    0.33870   0.34479   0.34621
 Angle between quadratic step and forces=  12.79 degrees.
 Linear search not attempted -- first point.
 Iteration  1 RMS(Cart)=  0.00080039 RMS(Int)=  0.00000067
 Iteration  2 RMS(Cart)=  0.00000064 RMS(Int)=  0.00000034
 Variable       Old X    -DE/DX   Delta X   Delta X   Delta X     New X
                                 (Linear)    (Quad)   (Total)
    R1        2.07239  -0.00007   0.00000  -0.00029  -0.00029   2.07210
    R2        2.07239  -0.00007   0.00000  -0.00029  -0.00029   2.07211
    R3        2.07239  -0.00007   0.00000  -0.00028  -0.00028   2.07211
    R4        2.90023   0.00004   0.00000   0.00099   0.00099   2.90122
    R5        2.07239  -0.00007   0.00000  -0.00028  -0.00028   2.07211
    R6        2.07240  -0.00007   0.00000  -0.00030  -0.00030   2.07210
    R7        2.07239  -0.00007   0.00000  -0.00028  -0.00028   2.07211
    A1        1.87679   0.00015   0.00000   0.00112   0.00112   1.87791
    A2        1.87681   0.00014   0.00000   0.00110   0.00110   1.87791
    A3        1.94343  -0.00014   0.00000  -0.00105  -0.00106   1.94238
    A4        1.87674   0.00014   0.00000   0.00112   0.00112   1.87786
    A5        1.94334  -0.00013   0.00000  -0.00103  -0.00103   1.94231
    A6        1.94336  -0.00014   0.00000  -0.00105  -0.00105   1.94231
    A7        1.94336  -0.00013   0.00000  -0.00104  -0.00104   1.94231
    A8        1.94343  -0.00014   0.00000  -0.00105  -0.00105   1.94238
    A9        1.94334  -0.00013   0.00000  -0.00103  -0.00103   1.94231
   A10        1.87681   0.00014   0.00000   0.00111   0.00111   1.87791
   A11        1.87677   0.00014   0.00000   0.00109   0.00109   1.87786
   A12        1.87678   0.00015   0.00000   0.00113   0.00113   1.87791
    D1        1.04716   0.00000   0.00000   0.00000   0.00000   1.04716
    D2       -3.14158   0.00000   0.00000  -0.00001  -0.00001  -3.14159
    D3       -1.04718   0.00000   0.00000   0.00002   0.00002  -1.04716
    D4        3.14158   0.00000   0.00000   0.00001   0.00001  -3.14159
    D5       -1.04716   0.00000   0.00000   0.00000   0.00000  -1.04716
    D6        1.04724   0.00000   0.00000   0.00003   0.00003   1.04727
    D7       -1.04729   0.00000   0.00000   0.00002   0.00002  -1.04727
    D8        1.04715   0.00000   0.00000   0.00001   0.00001   1.04716
    D9        3.14155   0.00000   0.00000   0.00004   0.00004  -3.14159
         Item               Value     Threshold  Converged?
 Maximum Force            0.000145     0.000450     YES
 RMS     Force            0.000097     0.000300     YES
 Maximum Displacement     0.001641     0.001800     YES
 RMS     Displacement     0.000801     0.001200     YES
 Predicted change in Energy=-9.856972D-07
 Optimization completed.
    -- Stationary point found.
                           ----------------------------
                           !   Optimized Parameters   !
                           ! (Angstroms and Degrees)  !
 --------------------------                            --------------------------
 ! Name  Definition              Value          Derivative Info.                !
 --------------------------------------------------------------------------------
 ! R1    R(1,2)                  1.0967         -DE/DX =   -0.0001              !
 ! R2    R(1,3)                  1.0967         -DE/DX =   -0.0001              !
 ! R3    R(1,4)                  1.0967         -DE/DX =   -0.0001              !
 ! R4    R(1,5)                  1.5347         -DE/DX =    0.0                 !
 ! R5    R(5,6)                  1.0967         -DE/DX =   -0.0001              !
 ! R6    R(5,7)                  1.0967         -DE/DX =   -0.0001              !
 ! R7    R(5,8)                  1.0967         -DE/DX =   -0.0001              !
 ! A1    A(2,1,3)              107.5322         -DE/DX =    0.0001              !
 ! A2    A(2,1,4)              107.5334         -DE/DX =    0.0001              !
 ! A3    A(2,1,5)              111.3504         -DE/DX =   -0.0001              !
 ! A4    A(3,1,4)              107.5294         -DE/DX =    0.0001              !
 ! A5    A(3,1,5)              111.3454         -DE/DX =   -0.0001              !
 ! A6    A(4,1,5)              111.3462         -DE/DX =   -0.0001              !
 ! A7    A(1,5,6)              111.3461         -DE/DX =   -0.0001              !
 ! A8    A(1,5,7)              111.3501         -DE/DX =   -0.0001              !
 ! A9    A(1,5,8)              111.3453         -DE/DX =   -0.0001              !
 ! A10   A(6,5,7)              107.533          -DE/DX =    0.0001              !
 ! A11   A(6,5,8)              107.5308         -DE/DX =    0.0001              !
 ! A12   A(7,5,8)              107.5318         -DE/DX =    0.0001              !
 ! D1    D(2,1,5,6)             59.9979         -DE/DX =    0.0                 !
 ! D2    D(2,1,5,7)           -179.9994         -DE/DX =    0.0                 !
 ! D3    D(2,1,5,8)            -59.9988         -DE/DX =    0.0                 !
 ! D4    D(3,1,5,6)           -180.0007         -DE/DX =    0.0                 !
 ! D5    D(3,1,5,7)            -59.998          -DE/DX =    0.0                 !
 ! D6    D(3,1,5,8)             60.0026         -DE/DX =    0.0                 !
 ! D7    D(4,1,5,6)            -60.0056         -DE/DX =    0.0                 !
 ! D8    D(4,1,5,7)             59.9971         -DE/DX =    0.0                 !
 ! D9    D(4,1,5,8)           -180.0023         -DE/DX =    0.0                 !
 --------------------------------------------------------------------------------
 GradGradGradGradGradGradGradGradGradGradGradGradGradGradGradGradGradGrad

 1\1\GINC-COMPUTE-0-2\Freq\RB3LYP\6-31G\C2H6\VIJI\04-Jun-2025\0\\#N Geo
 m=AllCheck Guess=TCheck SCRF=Check GenChk RB3LYP/6-31G Freq\\C2H6_M\\0
 ,1\C,-0.3020813119,1.1180023238,-2.0555164299\H,-0.3020755233,2.139412
 9977,-2.4547470054\H,0.5824919012,0.6072706893,-2.4547060685\H,-1.1866
 35071,0.6072517324,-2.4547194977\C,-0.3020812975,1.1179557436,-0.52078
 10235\H,-1.1866415529,1.6286938655,-0.1215811887\H,-0.302075541,0.0965
 377114,-0.121554175\H,0.5824983963,1.6286749364,-0.1215946112\\Version
 =AM64L-G09RevB.01\State=1-A\HF=-79.8127355\RMSD=2.985e-09\RMSF=1.663e-
 04\ZeroPoint=0.0756207\Thermal=0.0790851\Dipole=0.0000054,-0.0000014,-
 0.000001\DipoleDeriv=0.1053093,0.0000027,0.0000018,0.0000022,0.1053582
 ,-0.000025,0.0000022,-0.0000497,0.0438566,0.0776972,-0.0000017,-0.0000
 01,-0.0000002,-0.1478573,0.1062723,-0.0000015,0.0770527,-0.0146249,-0.
 0915089,0.097646,0.0920375,0.0976711,0.0212502,-0.0531236,0.0667353,-0
 .0385008,-0.0146155,-0.0914985,-0.0976449,-0.0920367,-0.097672,0.02124
 9,-0.0531243,-0.0667377,-0.0385012,-0.0146176,0.1053102,-0.0000032,-0.
 0000015,-0.0000021,0.1053593,-0.000027,-0.0000025,-0.0000506,0.0438558
 ,-0.0914974,0.0976434,0.0920354,0.0976685,0.021251,-0.0531238,0.066735
 9,-0.0385017,-0.014616,0.0776959,0.0000021,0.0000009,0.,-0.147863,0.10
 62743,0.0000016,0.0770525,-0.0146243,-0.0915078,-0.0976444,-0.0920364,
 -0.0976675,0.0212526,-0.0531229,-0.0667333,-0.0385011,-0.0146142\Polar
 =22.2613533,0.0000001,22.2613212,-0.0000002,-0.0002748,23.4561655\PG=C
 01 [X(C2H6)]\NImag=0\\0.57187416,0.00000474,0.57185733,0.00000408,0.00
 013821,0.47504176,-0.05095123,-0.00000124,-0.00000011,0.04976924,-0.00
 000111,-0.27733596,0.08458186,0.00000057,0.30295353,-0.00000020,0.0836
 9073,-0.07941465,0.,-0.09382305,0.09025274,-0.22077980,0.09802897,0.07
 326281,0.00006211,-0.00127430,-0.00012240,0.23968006,0.09801808,-0.107
 58926,-0.04231241,0.02770794,-0.01520721,-0.01149529,-0.10961628,0.113
 11376,0.07252391,-0.04188849,-0.07967783,-0.01000969,0.00564052,0.0039
 7273,-0.08126632,0.04692270,0.09045540,-0.22077648,-0.09803233,-0.0732
 6610,0.00006253,0.00127488,0.00012269,-0.02282511,-0.01448470,-0.00989
 846,0.23967611,-0.09802164,-0.10759443,-0.04231582,-0.02770714,-0.0152
 0668,-0.01149574,0.01448409,0.00768614,0.00585978,0.10961943,0.1131182
 8,-0.07252748,-0.04189189,-0.07968154,0.01000967,0.00564045,0.00397270
 ,0.00989788,0.00585967,0.00396417,0.08126985,0.04692637,0.09045839,-0.
 08254796,-0.00000008,-0.00000041,0.00015737,-0.00000005,-0.00000021,0.
 00151181,-0.00077668,0.02967910,0.00151215,0.00077691,-0.02967863,0.57
 188633,0.00000011,-0.08249337,-0.00008214,-0.00000010,0.00195292,0.034
 31724,-0.00078742,0.00060142,-0.01714186,0.00078768,0.00060154,-0.0171
 4183,-0.00000570,0.57184429,0.00000023,-0.00008217,-0.19202960,0.00000
 003,-0.00223155,-0.01477016,-0.00194548,0.00111078,-0.01473396,0.00194
 547,0.00111100,-0.01473362,-0.00000216,0.00014376,0.47503921,0.0015121
 8,-0.00078763,-0.00194545,-0.00000603,-0.00048431,0.00049833,0.0015214
 8,-0.00035298,-0.00073100,0.00083535,0.00000229,0.00040621,-0.22078156
 ,0.09803293,0.07326699,0.23968001,-0.00077682,0.00060156,0.00111089,-0
 .00049310,0.00055946,-0.00017563,-0.00035300,0.00111407,0.00042269,-0.
 00000224,-0.00027839,-0.00033245,0.09802231,-0.10759249,-0.04231628,-0
 .10962030,0.11311654,0.02967861,-0.01714189,-0.01473363,0.00010857,0.0
 0051708,0.00145074,-0.00073095,0.00042262,-0.00691654,-0.00040619,-0.0
 0033242,0.00148528,0.07252834,-0.04189235,-0.07968072,-0.08127092,0.04
 692655,0.09045801,0.00015734,0.00000019,-0.00000020,0.00091207,0.,0.,-
 0.00000604,-0.00049310,0.00010859,-0.00000605,0.00049304,-0.00010848,-
 0.05095255,0.00000136,-0.00000032,0.00006244,0.02770714,-0.01000946,0.
 04977076,-0.00000005,0.00195267,-0.00223144,0.,0.00172455,-0.00084238,
 -0.00048436,0.00055944,0.00051708,0.00048432,0.00055947,0.00051709,0.0
 0000114,-0.27732694,0.08457648,-0.00127466,-0.01520687,0.00564048,-0.0
 0000056,0.30294508,0.00000006,0.03431740,-0.01477021,0.00000002,-0.000
 84242,-0.00691520,0.00049831,-0.00017561,0.00145067,-0.00049823,-0.000
 17590,0.00145116,-0.00000033,0.08368519,-0.07941289,-0.00012264,-0.011
 49575,0.00397276,0.00000041,-0.09381770,0.09025111,0.00151180,0.000787
 38,0.00194537,-0.00000606,0.00048433,-0.00049820,0.00083548,-0.0000022
 8,-0.00040614,0.00152149,0.00035302,0.00073098,-0.22078560,-0.09802888
 ,-0.07326475,-0.02282387,-0.01448398,-0.00989800,0.00006203,0.00127415
 ,0.00012239,0.23968474,0.00077668,0.00060147,0.00111086,0.00049305,0.0
 0055940,-0.00017587,0.00000230,-0.00027837,-0.00033242,0.00035296,0.00
 111408,0.00042258,-0.09801785,-0.10758736,-0.04231204,0.01448467,0.007
 68611,0.00585993,-0.02770807,-0.01520741,-0.01149521,0.10961626,0.1131
 1208,-0.02967921,-0.01714190,-0.01473429,-0.00010848,0.00051711,0.0014
 5110,0.00040615,-0.00033247,0.00148535,0.00073098,0.00042274,-0.006916
 53,-0.07252571,-0.04188802,-0.07967826,0.00989847,0.00585998,0.0039641
 1,0.01000946,0.00564040,0.00397261,0.08126835,0.04692216,0.09045590\\-
 0.00000260,0.00000298,0.00050953,0.00000132,0.00001413,-0.00015487,0.0
 0001148,-0.00000502,-0.00015527,-0.00001020,-0.00000594,-0.00015516,-0
 .00000248,0.00000339,-0.00050866,-0.00001074,0.00000419,0.00015411,0.0
 0000123,-0.00001704,0.00015607,0.00001198,0.00000331,0.00015425\\\@


 BE CAREFUL NOT TO BECOME TOO GOOD OF A SONGBIRD OR 
 THEY'LL THROW YOU INTO A CAGE.

                                    -- SNOOPY TO WOODSTOCK
 Job cpu time:  0 days  0 hours  0 minutes 23.7 seconds.
 File lengths (MBytes):  RWF=      5 Int=      0 D2E=      0 Chk=      1 Scr=      1
 Normal termination of Gaussian 09 at Wed Jun  4 13:09:21 2025.
