 Entering Gaussian System, Link 0=g09
 Input=H20.gjf
 Output=H20.log
 Initial command:
 /share/apps/g09/l1.exe /scratch/Gau-22606.inp -scrdir=/scratch/
 Entering Link 1 = /share/apps/g09/l1.exe PID=     22607.
  
 Copyright (c) 1988,1990,1992,1993,1995,1998,2003,2009,2010,
            Gaussian, Inc.  All Rights Reserved.
  
 This is part of the Gaussian(R) 09 program.  It is based on
 the Gaussian(R) 03 system (copyright 2003, Gaussian, Inc.),
 the Gaussian(R) 98 system (copyright 1998, Gaussian, Inc.),
 the Gaussian(R) 94 system (copyright 1995, Gaussian, Inc.),
 the Gaussian 92(TM) system (copyright 1992, Gaussian, Inc.),
 the Gaussian 90(TM) system (copyright 1990, Gaussian, Inc.),
 the Gaussian 88(TM) system (copyright 1988, Gaussian, Inc.),
 the Gaussian 86(TM) system (copyright 1986, Carnegie Mellon
 University), and the Gaussian 82(TM) system (copyright 1983,
 Carnegie Mellon University). Gaussian is a federally registered
 trademark of Gaussian, Inc.
  
 This software contains proprietary and confidential information,
 including trade secrets, belonging to Gaussian, Inc.
  
 This software is provided under written license and may be
 used, copied, transmitted, or stored only in accord with that
 written license.
  
 The following legend is applicable only to US Government
 contracts under FAR:
  
                    RESTRICTED RIGHTS LEGEND
  
 Use, reproduction and disclosure by the US Government is
 subject to restrictions as set forth in subparagraphs (a)
 and (c) of the Commercial Computer Software - Restricted
 Rights clause in FAR 52.227-19.
  
 Gaussian, Inc.
 340 Quinnipiac St., Bldg. 40, Wallingford CT 06492
  
  
 ---------------------------------------------------------------
 Warning -- This program may not be used in any manner that
 competes with the business of Gaussian, Inc. or will provide
 assistance to any competitor of Gaussian, Inc.  The licensee
 of this program is prohibited from giving any competitor of
 Gaussian, Inc. access to this program.  By using this program,
 the user acknowledges that Gaussian, Inc. is engaged in the
 business of creating and licensing software in the field of
 computational chemistry and represents and warrants to the
 licensee that it is not a competitor of Gaussian, Inc. and that
 it will not use this program in any manner prohibited above.
 ---------------------------------------------------------------
  

 Cite this work as:
 Gaussian 09, Revision B.01,
 M. J. Frisch, G. W. Trucks, H. B. Schlegel, G. E. Scuseria, 
 M. A. Robb, J. R. Cheeseman, G. Scalmani, V. Barone, B. Mennucci, 
 G. A. Petersson, H. Nakatsuji, M. Caricato, X. Li, H. P. Hratchian, 
 A. F. Izmaylov, J. Bloino, G. Zheng, J. L. Sonnenberg, M. Hada, 
 M. Ehara, K. Toyota, R. Fukuda, J. Hasegawa, M. Ishida, T. Nakajima, 
 Y. Honda, O. Kitao, H. Nakai, T. Vreven, J. A. Montgomery, Jr., 
 J. E. Peralta, F. Ogliaro, M. Bearpark, J. J. Heyd, E. Brothers, 
 K. N. Kudin, V. N. Staroverov, T. Keith, R. Kobayashi, J. Normand, 
 K. Raghavachari, A. Rendell, J. C. Burant, S. S. Iyengar, J. Tomasi, 
 M. Cossi, N. Rega, J. M. Millam, M. Klene, J. E. Knox, J. B. Cross, 
 V. Bakken, C. Adamo, J. Jaramillo, R. Gomperts, R. E. Stratmann, 
 O. Yazyev, A. J. Austin, R. Cammi, C. Pomelli, J. W. Ochterski, 
 R. L. Martin, K. Morokuma, V. G. Zakrzewski, G. A. Voth, 
 P. Salvador, J. J. Dannenberg, S. Dapprich, A. D. Daniels, 
 O. Farkas, J. B. Foresman, J. V. Ortiz, J. Cioslowski, 
 and D. J. Fox, Gaussian, Inc., Wallingford CT, 2010.
 
 ******************************************
 Gaussian 09:  AM64L-G09RevB.01 12-Aug-2010
                 4-Jun-2025 
 ******************************************
 %mem=10GB
 %nprocshared=4
 Will use up to    4 processors via shared memory.
 ------------------------------------------------
 # opt freq b3lyp/6-31g geom=connectivity scf=xqc
 ------------------------------------------------
 1/14=-1,18=20,19=15,26=3,38=1,57=2/1,3;
 2/9=110,12=2,17=6,18=5,40=1/2;
 3/5=1,6=6,11=2,16=1,25=1,30=1,71=1,74=-5/1,2,3;
 4//1;
 5/5=2,8=3,13=1,38=5/2,8;
 6/7=2,8=2,9=2,10=2,28=1/1;
 7//1,2,3,16;
 1/14=-1,18=20,19=15/3(2);
 2/9=110/2;
 99//99;
 2/9=110/2;
 3/5=1,6=6,11=2,16=1,25=1,30=1,71=1,74=-5/1,2,3;
 4/5=5,16=3/1;
 5/5=2,8=3,13=1,38=5/2,8;
 7//1,2,3,16;
 1/14=-1,18=20,19=15/3(-5);
 2/9=110/2;
 6/7=2,8=2,9=2,10=2,19=2,28=1/1;
 99/9=1/99;
 -----
 H20_M
 -----
 Symbolic Z-matrix:
 Charge =  0 Multiplicity = 1
 O                    -2.9396    0.       -1.5201 
 H                    -2.9396    0.7593   -0.924 
 H                    -2.9396   -0.7593   -0.924 
 

 GradGradGradGradGradGradGradGradGradGradGradGradGradGradGradGradGradGrad
 Berny optimization.
 Initialization pass.
                           ----------------------------
                           !    Initial Parameters    !
                           ! (Angstroms and Degrees)  !
 --------------------------                            --------------------------
 ! Name  Definition              Value          Derivative Info.                !
 --------------------------------------------------------------------------------
 ! R1    R(1,2)                  0.9653         estimate D2E/DX2                !
 ! R2    R(1,3)                  0.9653         estimate D2E/DX2                !
 ! A1    A(2,1,3)              103.7316         estimate D2E/DX2                !
 --------------------------------------------------------------------------------
 Trust Radius=3.00D-01 FncErr=1.00D-07 GrdErr=1.00D-06
 Number of steps in this run=     20 maximum allowed number of steps=    100.
 GradGradGradGradGradGradGradGradGradGradGradGradGradGradGradGradGradGrad

                          Input orientation:                          
 ---------------------------------------------------------------------
 Center     Atomic      Atomic             Coordinates (Angstroms)
 Number     Number       Type             X           Y           Z
 ---------------------------------------------------------------------
      1          8           0       -2.939600    0.000000   -1.520100
      2          1           0       -2.939600    0.759300   -0.924000
      3          1           0       -2.939600   -0.759300   -0.924000
 ---------------------------------------------------------------------
                    Distance matrix (angstroms):
                    1          2          3
     1  O    0.000000
     2  H    0.965335   0.000000
     3  H    0.965335   1.518600   0.000000
 Stoichiometry    H2O
 Framework group  C2V[C2(O),SGV(H2)]
 Deg. of freedom     2
 Full point group                 C2V     NOp   4
 Largest Abelian subgroup         C2V     NOp   4
 Largest concise Abelian subgroup C2      NOp   2
                         Standard orientation:                         
 ---------------------------------------------------------------------
 Center     Atomic      Atomic             Coordinates (Angstroms)
 Number     Number       Type             X           Y           Z
 ---------------------------------------------------------------------
      1          8           0        0.000000    0.000000    0.119220
      2          1           0        0.000000    0.759300   -0.476880
      3          1           0        0.000000   -0.759300   -0.476880
 ---------------------------------------------------------------------
 Rotational constants (GHZ):    794.5280186    434.8858303    281.0518015
 Standard basis: 6-31G (6D, 7F)
 There are     7 symmetry adapted basis functions of A1  symmetry.
 There are     0 symmetry adapted basis functions of A2  symmetry.
 There are     2 symmetry adapted basis functions of B1  symmetry.
 There are     4 symmetry adapted basis functions of B2  symmetry.
 Integral buffers will be    131072 words long.
 Raffenetti 2 integral format.
 Two-electron integral symmetry is turned on.
    13 basis functions,    30 primitive gaussians,    13 cartesian basis functions
     5 alpha electrons        5 beta electrons
       nuclear repulsion energy         9.1193414931 Hartrees.
 NAtoms=    3 NActive=    3 NUniq=    2 SFac= 2.25D+00 NAtFMM=   50 NAOKFM=F Big=F
 One-electron integrals computed using PRISM.
 NBasis=    13 RedAO= T  NBF=     7     0     2     4
 NBsUse=    13 1.00D-06 NBFU=     7     0     2     4
 Harris functional with IExCor=  402 diagonalized for initial guess.
 ExpMin= 1.61D-01 ExpMax= 5.48D+03 ExpMxC= 8.25D+02 IAcc=1 IRadAn=         1 AccDes= 0.00D+00
 HarFok:  IExCor=  402 AccDes= 0.00D+00 IRadAn=         1 IDoV= 1
 ScaDFX=  1.000000  1.000000  1.000000  1.000000
 FoFCou: FMM=F IPFlag=           0 FMFlag=      100000 FMFlg1=           0
         NFxFlg=           0 DoJE=T BraDBF=F KetDBF=T FulRan=T
         Omega=  0.000000  0.000000  1.000000  0.000000  0.000000 ICntrl=     500 IOpCl=  0
         NMat0=    1 NMatS0=    1 NMatT0=    0 NMatD0=    1 NMtDS0=    0 NMtDT0=    0
         I1Cent=           4 NGrid=           0.
 Petite list used in FoFCou.
 Initial guess orbital symmetries:
       Occupied  (A1) (A1) (B2) (A1) (B1)
       Virtual   (A1) (B2) (B2) (A1) (B1) (A1) (B2) (A1)
 The electronic state of the initial guess is 1-A1.
 Requested convergence on RMS density matrix=1.00D-08 within  64 cycles.
 Requested convergence on MAX density matrix=1.00D-06.
 Requested convergence on             energy=1.00D-06.
 No special actions if energy rises.
 Keep R1 ints in memory in canonical form, NReq=893436.
 Integral accuracy reduced to 1.0D-05 until final iterations.
 Initial convergence to 1.0D-05 achieved.  Increase integral accuracy.
 SCF Done:  E(RB3LYP) =  -76.3852383350     A.U. after    9 cycles
             Convg  =    0.2220D-08             -V/T =  2.0044
 QCSCF skips out because SCF is already converged.

 **********************************************************************

            Population analysis using the SCF density.

 **********************************************************************

 Orbital symmetries:
       Occupied  (A1) (A1) (B2) (A1) (B1)
       Virtual   (A1) (B2) (B2) (A1) (B1) (A1) (B2) (A1)
 The electronic state is 1-A1.
 Alpha  occ. eigenvalues --  -19.13498  -1.01641  -0.52651  -0.35788  -0.29216
 Alpha virt. eigenvalues --    0.05510   0.14460   0.80497   0.87226   0.88899
 Alpha virt. eigenvalues --    0.95909   1.06663   1.42469
          Condensed to atoms (all electrons):
              1          2          3
     1  O    8.221467   0.241762   0.241762
     2  H    0.241762   0.442963  -0.037221
     3  H    0.241762  -0.037221   0.442963
 Mulliken atomic charges:
              1
     1  O   -0.704991
     2  H    0.352496
     3  H    0.352496
 Sum of Mulliken atomic charges =   0.00000
 Mulliken charges with hydrogens summed into heavy atoms:
              1
     1  O    0.000000
 Sum of Mulliken charges with hydrogens summed into heavy atoms =   0.00000
 Electronic spatial extent (au):  <R**2>=             19.2740
 Charge=              0.0000 electrons
 Dipole moment (field-independent basis, Debye):
    X=              0.0000    Y=              0.0000    Z=             -2.4688  Tot=              2.4688
 Quadrupole moment (field-independent basis, Debye-Ang):
   XX=             -7.1775   YY=             -4.3403   ZZ=             -6.1371
   XY=              0.0000   XZ=              0.0000   YZ=              0.0000
 Traceless Quadrupole moment (field-independent basis, Debye-Ang):
   XX=             -1.2925   YY=              1.5447   ZZ=             -0.2522
   XY=              0.0000   XZ=              0.0000   YZ=              0.0000
 Octapole moment (field-independent basis, Debye-Ang**2):
  XXX=              0.0000  YYY=              0.0000  ZZZ=             -1.3615  XYY=              0.0000
  XXY=              0.0000  XXZ=             -0.3863  XZZ=              0.0000  YZZ=              0.0000
  YYZ=             -1.1256  XYZ=              0.0000
 Hexadecapole moment (field-independent basis, Debye-Ang**3):
 XXXX=             -5.1686 YYYY=             -6.1377 ZZZZ=             -6.3588 XXXY=              0.0000
 XXXZ=              0.0000 YYYX=              0.0000 YYYZ=              0.0000 ZZZX=              0.0000
 ZZZY=              0.0000 XXYY=             -2.0940 XXZZ=             -1.9692 YYZZ=             -1.7949
 XXYZ=              0.0000 YYXZ=              0.0000 ZZXY=              0.0000
 N-N= 9.119341493132D+00 E-N=-1.989714867948D+02  KE= 7.604915870386D+01
 Symmetry A1   KE= 6.788551570459D+01
 Symmetry A2   KE= 0.000000000000D+00
 Symmetry B1   KE= 4.612496381468D+00
 Symmetry B2   KE= 3.551146617807D+00
 Calling FoFJK, ICntrl=      2127 FMM=F ISym2X=1 I1Cent= 0 IOpClX= 0 NMat=1 NMatS=1 NMatT=0.
 ***** Axes restored to original set *****
 -------------------------------------------------------------------
 Center     Atomic                   Forces (Hartrees/Bohr)
 Number     Number              X              Y              Z
 -------------------------------------------------------------------
      1        8           0.000000000    0.000000000   -0.003238203
      2        1           0.000000000    0.015892566    0.001619102
      3        1           0.000000000   -0.015892566    0.001619102
 -------------------------------------------------------------------
 Cartesian Forces:  Max     0.015892566 RMS     0.007607571

 GradGradGradGradGradGradGradGradGradGradGradGradGradGradGradGradGradGrad
 Berny optimization.
 Internal  Forces:  Max     0.015579232 RMS     0.014227110
 Search for a local minimum.
 Step number   1 out of a maximum of   20
 All quantities printed in internal units (Hartrees-Bohrs-Radians)
 Mixed Optimization -- RFO/linear search
 Second derivative matrix not updated -- first step.
 The second derivative matrix:
                          R1        R2        A1
           R1           0.54342
           R2           0.00000   0.54342
           A1           0.00000   0.00000   0.16000
 ITU=  0
     Eigenvalues ---    0.16000   0.54342   0.54342
 RFO step:  Lambda=-2.16483656D-03 EMin= 1.60000000D-01
 Linear search not attempted -- first point.
 Iteration  1 RMS(Cart)=  0.06517817 RMS(Int)=  0.00186670
 Iteration  2 RMS(Cart)=  0.00131142 RMS(Int)=  0.00000094
 Iteration  3 RMS(Cart)=  0.00000105 RMS(Int)=  0.00000000
 Iteration  4 RMS(Cart)=  0.00000000 RMS(Int)=  0.00000000
 ClnCor:  largest displacement from symmetrization is 4.97D-16 for atom     3.
 Variable       Old X    -DE/DX   Delta X   Delta X   Delta X     New X
                                 (Linear)    (Quad)   (Total)
    R1        1.82422   0.01350   0.00000   0.02474   0.02474   1.84896
    R2        1.82422   0.01350   0.00000   0.02474   0.02474   1.84896
    A1        1.81046   0.01558   0.00000   0.09607   0.09607   1.90653
         Item               Value     Threshold  Converged?
 Maximum Force            0.015579     0.000450     NO 
 RMS     Force            0.014227     0.000300     NO 
 Maximum Displacement     0.072609     0.001800     NO 
 RMS     Displacement     0.064872     0.001200     NO 
 Predicted change in Energy=-1.093733D-03
 GradGradGradGradGradGradGradGradGradGradGradGradGradGradGradGradGradGrad

                          Input orientation:                          
 ---------------------------------------------------------------------
 Center     Atomic      Atomic             Coordinates (Angstroms)
 Number     Number       Type             X           Y           Z
 ---------------------------------------------------------------------
      1          8           0       -2.939600    0.000000   -1.500390
      2          1           0       -2.939600    0.797723   -0.933855
      3          1           0       -2.939600   -0.797723   -0.933855
 ---------------------------------------------------------------------
                    Distance matrix (angstroms):
                    1          2          3
     1  O    0.000000
     2  H    0.978429   0.000000
     3  H    0.978429   1.595446   0.000000
 Stoichiometry    H2O
 Framework group  C2V[C2(O),SGV(H2)]
 Deg. of freedom     2
 Full point group                 C2V     NOp   4
 Largest Abelian subgroup         C2V     NOp   4
 Largest concise Abelian subgroup C2      NOp   2
                         Standard orientation:                         
 ---------------------------------------------------------------------
 Center     Atomic      Atomic             Coordinates (Angstroms)
 Number     Number       Type             X           Y           Z
 ---------------------------------------------------------------------
      1          8           0        0.000000    0.000000    0.113307
      2          1           0        0.000000    0.797723   -0.453228
      3          1           0        0.000000   -0.797723   -0.453228
 ---------------------------------------------------------------------
 Rotational constants (GHZ):    879.6165959    394.0014834    272.1147330
 Standard basis: 6-31G (6D, 7F)
 There are     7 symmetry adapted basis functions of A1  symmetry.
 There are     0 symmetry adapted basis functions of A2  symmetry.
 There are     2 symmetry adapted basis functions of B1  symmetry.
 There are     4 symmetry adapted basis functions of B2  symmetry.
 Integral buffers will be    131072 words long.
 Raffenetti 2 integral format.
 Two-electron integral symmetry is turned on.
    13 basis functions,    30 primitive gaussians,    13 cartesian basis functions
     5 alpha electrons        5 beta electrons
       nuclear repulsion energy         8.9851754870 Hartrees.
 NAtoms=    3 NActive=    3 NUniq=    2 SFac= 2.25D+00 NAtFMM=   50 NAOKFM=F Big=F
 One-electron integrals computed using PRISM.
 NBasis=    13 RedAO= T  NBF=     7     0     2     4
 NBsUse=    13 1.00D-06 NBFU=     7     0     2     4
 Initial guess read from the read-write file.
 B after Tr=     0.000000    0.000000    0.000000
         Rot=    1.000000    0.000000    0.000000    0.000000 Ang=   0.00 deg.
 Initial guess orbital symmetries:
       Occupied  (A1) (A1) (B2) (A1) (B1)
       Virtual   (A1) (B2) (B2) (A1) (B1) (A1) (B2) (A1)
 Harris functional with IExCor=  402 diagonalized for initial guess.
 ExpMin= 1.61D-01 ExpMax= 5.48D+03 ExpMxC= 8.25D+02 IAcc=1 IRadAn=         1 AccDes= 0.00D+00
 HarFok:  IExCor=  402 AccDes= 0.00D+00 IRadAn=         1 IDoV= 1
 ScaDFX=  1.000000  1.000000  1.000000  1.000000
 FoFCou: FMM=F IPFlag=           0 FMFlag=      100000 FMFlg1=           0
         NFxFlg=           0 DoJE=T BraDBF=F KetDBF=T FulRan=T
         Omega=  0.000000  0.000000  1.000000  0.000000  0.000000 ICntrl=     500 IOpCl=  0
         NMat0=    1 NMatS0=    1 NMatT0=    0 NMatD0=    1 NMtDS0=    0 NMtDT0=    0
         I1Cent=           4 NGrid=           0.
 Petite list used in FoFCou.
 Requested convergence on RMS density matrix=1.00D-08 within  64 cycles.
 Requested convergence on MAX density matrix=1.00D-06.
 Requested convergence on             energy=1.00D-06.
 No special actions if energy rises.
 Keep R1 ints in memory in canonical form, NReq=893436.
 Integral accuracy reduced to 1.0D-05 until final iterations.
 Initial convergence to 1.0D-05 achieved.  Increase integral accuracy.
 SCF Done:  E(RB3LYP) =  -76.3860770214     A.U. after    8 cycles
             Convg  =    0.4589D-08             -V/T =  2.0052
 QCSCF skips out because SCF is already converged.
 Calling FoFJK, ICntrl=      2127 FMM=F ISym2X=1 I1Cent= 0 IOpClX= 0 NMat=1 NMatS=1 NMatT=0.
 ***** Axes restored to original set *****
 -------------------------------------------------------------------
 Center     Atomic                   Forces (Hartrees/Bohr)
 Number     Number              X              Y              Z
 -------------------------------------------------------------------
      1        8           0.000000000    0.000000000    0.000746182
      2        1           0.000000000   -0.003401134   -0.000373091
      3        1           0.000000000    0.003401134   -0.000373091
 -------------------------------------------------------------------
 Cartesian Forces:  Max     0.003401134 RMS     0.001631993

 GradGradGradGradGradGradGradGradGradGradGradGradGradGradGradGradGradGrad
 Berny optimization.
 Using GEDIIS/GDIIS optimizer.
 Internal  Forces:  Max     0.003078816 RMS     0.003019240
 Search for a local minimum.
 Step number   2 out of a maximum of   20
 All quantities printed in internal units (Hartrees-Bohrs-Radians)
 Mixed Optimization -- RFO/linear search
 Update second derivatives using D2CorX and points    1    2
 DE= -8.39D-04 DEPred=-1.09D-03 R= 7.67D-01
 SS=  1.41D+00  RLast= 1.02D-01 DXNew= 5.0454D-01 3.0674D-01
 Trust test= 7.67D-01 RLast= 1.02D-01 DXMaxT set to 3.07D-01
 The second derivative matrix:
                          R1        R2        A1
           R1           0.56324
           R2           0.01983   0.56324
           A1           0.02146   0.02146   0.18316
 ITU=  1  0
 Use linear search instead of GDIIS.
     Eigenvalues ---    0.18087   0.54342   0.58536
 RFO step:  Lambda=-6.32706742D-08 EMin= 1.80870025D-01
 Quartic linear search produced a step of -0.17740.
 Iteration  1 RMS(Cart)=  0.01135413 RMS(Int)=  0.00005769
 Iteration  2 RMS(Cart)=  0.00004157 RMS(Int)=  0.00000000
 Iteration  3 RMS(Cart)=  0.00000000 RMS(Int)=  0.00000000
 ClnCor:  largest displacement from symmetrization is 3.14D-16 for atom     3.
 Variable       Old X    -DE/DX   Delta X   Delta X   Delta X     New X
                                 (Linear)    (Quad)   (Total)
    R1        1.84896  -0.00299  -0.00439  -0.00020  -0.00459   1.84437
    R2        1.84896  -0.00299  -0.00439  -0.00020  -0.00459   1.84437
    A1        1.90653  -0.00308  -0.01704   0.00035  -0.01669   1.88984
         Item               Value     Threshold  Converged?
 Maximum Force            0.003079     0.000450     NO 
 RMS     Force            0.003019     0.000300     NO 
 Maximum Displacement     0.012706     0.001800     NO 
 RMS     Displacement     0.011367     0.001200     NO 
 Predicted change in Energy=-3.774289D-05
 GradGradGradGradGradGradGradGradGradGradGradGradGradGradGradGradGradGrad

                          Input orientation:                          
 ---------------------------------------------------------------------
 Center     Atomic      Atomic             Coordinates (Angstroms)
 Number     Number       Type             X           Y           Z
 ---------------------------------------------------------------------
      1          8           0       -2.939600    0.000000   -1.503867
      2          1           0       -2.939600    0.790999   -0.932117
      3          1           0       -2.939600   -0.790999   -0.932117
 ---------------------------------------------------------------------
                    Distance matrix (angstroms):
                    1          2          3
     1  O    0.000000
     2  H    0.976001   0.000000
     3  H    0.976001   1.581998   0.000000
 Stoichiometry    H2O
 Framework group  C2V[C2(O),SGV(H2)]
 Deg. of freedom     2
 Full point group                 C2V     NOp   4
 Largest Abelian subgroup         C2V     NOp   4
 Largest concise Abelian subgroup C2      NOp   2
                         Standard orientation:                         
 ---------------------------------------------------------------------
 Center     Atomic      Atomic             Coordinates (Angstroms)
 Number     Number       Type             X           Y           Z
 ---------------------------------------------------------------------
      1          8           0        0.000000    0.000000    0.114350
      2          1           0        0.000000    0.790999   -0.457400
      3          1           0        0.000000   -0.790999   -0.457400
 ---------------------------------------------------------------------
 Rotational constants (GHZ):    863.6451356    400.7282579    273.7221555
 Standard basis: 6-31G (6D, 7F)
 There are     7 symmetry adapted basis functions of A1  symmetry.
 There are     0 symmetry adapted basis functions of A2  symmetry.
 There are     2 symmetry adapted basis functions of B1  symmetry.
 There are     4 symmetry adapted basis functions of B2  symmetry.
 Integral buffers will be    131072 words long.
 Raffenetti 2 integral format.
 Two-electron integral symmetry is turned on.
    13 basis functions,    30 primitive gaussians,    13 cartesian basis functions
     5 alpha electrons        5 beta electrons
       nuclear repulsion energy         9.0095279725 Hartrees.
 NAtoms=    3 NActive=    3 NUniq=    2 SFac= 2.25D+00 NAtFMM=   50 NAOKFM=F Big=F
 One-electron integrals computed using PRISM.
 NBasis=    13 RedAO= T  NBF=     7     0     2     4
 NBsUse=    13 1.00D-06 NBFU=     7     0     2     4
 Initial guess read from the read-write file.
 B after Tr=     0.000000    0.000000    0.000000
         Rot=    1.000000    0.000000    0.000000    0.000000 Ang=   0.00 deg.
 Initial guess orbital symmetries:
       Occupied  (A1) (A1) (B2) (A1) (B1)
       Virtual   (A1) (B2) (B2) (A1) (B1) (A1) (B2) (A1)
 Requested convergence on RMS density matrix=1.00D-08 within  64 cycles.
 Requested convergence on MAX density matrix=1.00D-06.
 Requested convergence on             energy=1.00D-06.
 No special actions if energy rises.
 Keep R1 ints in memory in canonical form, NReq=893436.
 SCF Done:  E(RB3LYP) =  -76.3861166006     A.U. after    6 cycles
             Convg  =    0.7797D-08             -V/T =  2.0051
 QCSCF skips out because SCF is already converged.
 Calling FoFJK, ICntrl=      2127 FMM=F ISym2X=1 I1Cent= 0 IOpClX= 0 NMat=1 NMatS=1 NMatT=0.
 ***** Axes restored to original set *****
 -------------------------------------------------------------------
 Center     Atomic                   Forces (Hartrees/Bohr)
 Number     Number              X              Y              Z
 -------------------------------------------------------------------
      1        8           0.000000000    0.000000000    0.000154980
      2        1           0.000000000   -0.000063016   -0.000077490
      3        1           0.000000000    0.000063016   -0.000077490
 -------------------------------------------------------------------
 Cartesian Forces:  Max     0.000154980 RMS     0.000069897

 GradGradGradGradGradGradGradGradGradGradGradGradGradGradGradGradGradGrad
 Berny optimization.
 Using GEDIIS/GDIIS optimizer.
 Internal  Forces:  Max     0.000096466 RMS     0.000083448
 Search for a local minimum.
 Step number   3 out of a maximum of   20
 All quantities printed in internal units (Hartrees-Bohrs-Radians)
 Mixed Optimization -- En-DIIS/RFO-DIIS
 Update second derivatives using D2CorX and points    1    2    3
 DE= -3.96D-05 DEPred=-3.77D-05 R= 1.05D+00
 SS=  1.41D+00  RLast= 1.79D-02 DXNew= 5.1587D-01 5.3723D-02
 Trust test= 1.05D+00 RLast= 1.79D-02 DXMaxT set to 3.07D-01
 The second derivative matrix:
                          R1        R2        A1
           R1           0.55745
           R2           0.01403   0.55745
           A1           0.01616   0.01616   0.17844
 ITU=  1  1  0
 Use linear search instead of GDIIS.
     Eigenvalues ---    0.17712   0.54342   0.57281
 RFO step:  Lambda=-4.84289511D-08 EMin= 1.77117850D-01
 Quartic linear search produced a step of  0.00111.
 Iteration  1 RMS(Cart)=  0.00015534 RMS(Int)=  0.00000002
 Iteration  2 RMS(Cart)=  0.00000003 RMS(Int)=  0.00000000
 ClnCor:  largest displacement from symmetrization is 9.93D-16 for atom     3.
 Variable       Old X    -DE/DX   Delta X   Delta X   Delta X     New X
                                 (Linear)    (Quad)   (Total)
    R1        1.84437  -0.00010  -0.00001  -0.00017  -0.00018   1.84420
    R2        1.84437  -0.00010  -0.00001  -0.00017  -0.00018   1.84420
    A1        1.88984   0.00005  -0.00002   0.00032   0.00030   1.89014
         Item               Value     Threshold  Converged?
 Maximum Force            0.000096     0.000450     YES
 RMS     Force            0.000083     0.000300     YES
 Maximum Displacement     0.000219     0.001800     YES
 RMS     Displacement     0.000155     0.001200     YES
 Predicted change in Energy=-2.425464D-08
 Optimization completed.
    -- Stationary point found.
                           ----------------------------
                           !   Optimized Parameters   !
                           ! (Angstroms and Degrees)  !
 --------------------------                            --------------------------
 ! Name  Definition              Value          Derivative Info.                !
 --------------------------------------------------------------------------------
 ! R1    R(1,2)                  0.976          -DE/DX =   -0.0001              !
 ! R2    R(1,3)                  0.976          -DE/DX =   -0.0001              !
 ! A1    A(2,1,3)              108.2797         -DE/DX =    0.0                 !
 --------------------------------------------------------------------------------
 GradGradGradGradGradGradGradGradGradGradGradGradGradGradGradGradGradGrad

                          Input orientation:                          
 ---------------------------------------------------------------------
 Center     Atomic      Atomic             Coordinates (Angstroms)
 Number     Number       Type             X           Y           Z
 ---------------------------------------------------------------------
      1          8           0       -2.939600    0.000000   -1.503867
      2          1           0       -2.939600    0.790999   -0.932117
      3          1           0       -2.939600   -0.790999   -0.932117
 ---------------------------------------------------------------------
                    Distance matrix (angstroms):
                    1          2          3
     1  O    0.000000
     2  H    0.976001   0.000000
     3  H    0.976001   1.581998   0.000000
 Stoichiometry    H2O
 Framework group  C2V[C2(O),SGV(H2)]
 Deg. of freedom     2
 Full point group                 C2V     NOp   4
 Largest Abelian subgroup         C2V     NOp   4
 Largest concise Abelian subgroup C2      NOp   2
                         Standard orientation:                         
 ---------------------------------------------------------------------
 Center     Atomic      Atomic             Coordinates (Angstroms)
 Number     Number       Type             X           Y           Z
 ---------------------------------------------------------------------
      1          8           0        0.000000    0.000000    0.114350
      2          1           0        0.000000    0.790999   -0.457400
      3          1           0        0.000000   -0.790999   -0.457400
 ---------------------------------------------------------------------
 Rotational constants (GHZ):    863.6451356    400.7282579    273.7221555

 **********************************************************************

            Population analysis using the SCF density.

 **********************************************************************

 Orbital symmetries:
       Occupied  (A1) (A1) (B2) (A1) (B1)
       Virtual   (A1) (B2) (B2) (A1) (B1) (A1) (B2) (A1)
 The electronic state is 1-A1.
 Alpha  occ. eigenvalues --  -19.13359  -1.00637  -0.52942  -0.34862  -0.28961
 Alpha virt. eigenvalues --    0.05277   0.14237   0.82185   0.85101   0.89052
 Alpha virt. eigenvalues --    0.94469   1.07115   1.40875
          Condensed to atoms (all electrons):
              1          2          3
     1  O    8.234748   0.241444   0.241444
     2  H    0.241444   0.432461  -0.032723
     3  H    0.241444  -0.032723   0.432461
 Mulliken atomic charges:
              1
     1  O   -0.717635
     2  H    0.358818
     3  H    0.358818
 Sum of Mulliken atomic charges =   0.00000
 Mulliken charges with hydrogens summed into heavy atoms:
              1
     1  O    0.000000
 Sum of Mulliken charges with hydrogens summed into heavy atoms =   0.00000
 Electronic spatial extent (au):  <R**2>=             19.3935
 Charge=              0.0000 electrons
 Dipole moment (field-independent basis, Debye):
    X=              0.0000    Y=              0.0000    Z=             -2.3989  Tot=              2.3989
 Quadrupole moment (field-independent basis, Debye-Ang):
   XX=             -7.2019   YY=             -4.1162   ZZ=             -6.2440
   XY=              0.0000   XZ=              0.0000   YZ=              0.0000
 Traceless Quadrupole moment (field-independent basis, Debye-Ang):
   XX=             -1.3479   YY=              1.7379   ZZ=             -0.3900
   XY=              0.0000   XZ=              0.0000   YZ=              0.0000
 Octapole moment (field-independent basis, Debye-Ang**2):
  XXX=              0.0000  YYY=              0.0000  ZZZ=             -1.2792  XYY=              0.0000
  XXY=              0.0000  XXZ=             -0.3662  XZZ=              0.0000  YZZ=              0.0000
  YYZ=             -1.1809  XYZ=              0.0000
 Hexadecapole moment (field-independent basis, Debye-Ang**3):
 XXXX=             -5.1967 YYYY=             -6.0932 ZZZZ=             -6.3287 XXXY=              0.0000
 XXXZ=              0.0000 YYYX=              0.0000 YYYZ=              0.0000 ZZZX=              0.0000
 ZZZY=              0.0000 XXYY=             -2.1384 XXZZ=             -1.9619 YYZZ=             -1.8121
 XXYZ=              0.0000 YYXZ=              0.0000 ZZXY=              0.0000
 N-N= 9.009527972489D+00 E-N=-1.987525107994D+02  KE= 7.600203580499D+01
 Symmetry A1   KE= 6.788563396463D+01
 Symmetry A2   KE= 0.000000000000D+00
 Symmetry B1   KE= 4.607517953383D+00
 Symmetry B2   KE= 3.508883886978D+00
 1\1\GINC-COMPUTE-0-2\FOpt\RB3LYP\6-31G\H2O1\VIJI\04-Jun-2025\0\\# opt 
 freq b3lyp/6-31g geom=connectivity scf=xqc\\H20_M\\0,1\O,-2.9396,0.,-1
 .5038665714\H,-2.9396,0.7909992003,-0.9321167143\H,-2.9396,-0.79099920
 03,-0.9321167143\\Version=AM64L-G09RevB.01\State=1-A1\HF=-76.3861166\R
 MSD=7.797e-09\RMSF=6.990e-05\Dipole=0.,0.,0.9438097\Quadrupole=-1.0021
 144,1.2920732,-0.2899588,0.,0.,0.\PG=C02V [C2(O1),SGV(H2)]\\@


 MAN IS A SINGULAR CREATURE.  HE HAS A SET OF GIFTS
 WHICH MAKE HIM UNIQUE AMONG THE ANIMALS: SO THAT, 
 UNLIKE THEM, HE IS NOT A FIGURE IN THE LANDSCAPE --
 HE IS A SHAPER OF THE LANDSCAPE.

                       -- JACOB BRONOWSKI
 Job cpu time:  0 days  0 hours  0 minutes 12.4 seconds.
 File lengths (MBytes):  RWF=      5 Int=      0 D2E=      0 Chk=      1 Scr=      1
 Normal termination of Gaussian 09 at Wed Jun  4 13:12:05 2025.
 Link1:  Proceeding to internal job step number  2.
 -----------------------------------------------------------------
 #N Geom=AllCheck Guess=TCheck SCRF=Check GenChk RB3LYP/6-31G Freq
 -----------------------------------------------------------------
 1/10=4,29=7,30=1,38=1,40=1/1,3;
 2/12=2,40=1/2;
 3/5=1,6=6,11=2,14=-4,16=1,25=1,30=1,70=2,71=2,74=-5,116=1/1,2,3;
 4/5=101/1;
 5/5=2,8=3,13=1,98=1/2,8;
 8/6=4,10=90,11=11/1;
 11/6=1,8=1,9=11,15=111,16=1/1,2,10;
 10/6=1/2;
 6/7=2,8=2,9=2,10=2,18=1,28=1/1;
 7/8=1,10=1,25=1/1,2,3,16;
 1/10=4,30=1/3;
 99//99;
 -----
 H20_M
 -----
 Redundant internal coordinates taken from checkpoint file:
 /scratch/Gau-22607.chk
 Charge =  0 Multiplicity = 1
 O,0,-2.9396,0.,-1.5038665714
 H,0,-2.9396,0.7909992003,-0.9321167143
 H,0,-2.9396,-0.7909992003,-0.9321167143
 Recover connectivity data from disk.

 GradGradGradGradGradGradGradGradGradGradGradGradGradGradGradGradGradGrad
 Berny optimization.
 Initialization pass.
                           ----------------------------
                           !    Initial Parameters    !
                           ! (Angstroms and Degrees)  !
 --------------------------                            --------------------------
 ! Name  Definition              Value          Derivative Info.                !
 --------------------------------------------------------------------------------
 ! R1    R(1,2)                  0.976          calculate D2E/DX2 analytically  !
 ! R2    R(1,3)                  0.976          calculate D2E/DX2 analytically  !
 ! A1    A(2,1,3)              108.2797         calculate D2E/DX2 analytically  !
 --------------------------------------------------------------------------------
 Trust Radius=3.00D-01 FncErr=1.00D-07 GrdErr=1.00D-07
 Number of steps in this run=      2 maximum allowed number of steps=      2.
 GradGradGradGradGradGradGradGradGradGradGradGradGradGradGradGradGradGrad

                          Input orientation:                          
 ---------------------------------------------------------------------
 Center     Atomic      Atomic             Coordinates (Angstroms)
 Number     Number       Type             X           Y           Z
 ---------------------------------------------------------------------
      1          8           0       -2.939600    0.000000   -1.503867
      2          1           0       -2.939600    0.790999   -0.932117
      3          1           0       -2.939600   -0.790999   -0.932117
 ---------------------------------------------------------------------
                    Distance matrix (angstroms):
                    1          2          3
     1  O    0.000000
     2  H    0.976001   0.000000
     3  H    0.976001   1.581998   0.000000
 Stoichiometry    H2O
 Framework group  C2V[C2(O),SGV(H2)]
 Deg. of freedom     2
 Full point group                 C2V     NOp   4
 Largest Abelian subgroup         C2V     NOp   4
 Largest concise Abelian subgroup C2      NOp   2
                         Standard orientation:                         
 ---------------------------------------------------------------------
 Center     Atomic      Atomic             Coordinates (Angstroms)
 Number     Number       Type             X           Y           Z
 ---------------------------------------------------------------------
      1          8           0        0.000000    0.000000    0.114350
      2          1           0        0.000000    0.790999   -0.457400
      3          1           0        0.000000   -0.790999   -0.457400
 ---------------------------------------------------------------------
 Rotational constants (GHZ):    863.6451356    400.7282579    273.7221555
 Standard basis: 6-31G (6D, 7F)
 There are     7 symmetry adapted basis functions of A1  symmetry.
 There are     0 symmetry adapted basis functions of A2  symmetry.
 There are     2 symmetry adapted basis functions of B1  symmetry.
 There are     4 symmetry adapted basis functions of B2  symmetry.
 Integral buffers will be    131072 words long.
 Raffenetti 2 integral format.
 Two-electron integral symmetry is turned on.
    13 basis functions,    30 primitive gaussians,    13 cartesian basis functions
     5 alpha electrons        5 beta electrons
       nuclear repulsion energy         9.0095279725 Hartrees.
 NAtoms=    3 NActive=    3 NUniq=    2 SFac= 2.25D+00 NAtFMM=   50 NAOKFM=F Big=F
 One-electron integrals computed using PRISM.
 NBasis=    13 RedAO= T  NBF=     7     0     2     4
 NBsUse=    13 1.00D-06 NBFU=     7     0     2     4
 Initial guess read from the checkpoint file:  /scratch/Gau-22607.chk
 B after Tr=     0.000000    0.000000    0.000000
         Rot=    1.000000    0.000000    0.000000    0.000000 Ang=   0.00 deg.
 Initial guess orbital symmetries:
       Occupied  (A1) (A1) (B2) (A1) (B1)
       Virtual   (A1) (B2) (B2) (A1) (B1) (A1) (B2) (A1)
 Requested convergence on RMS density matrix=1.00D-08 within  64 cycles.
 Requested convergence on MAX density matrix=1.00D-06.
 Requested convergence on             energy=1.00D-06.
 No special actions if energy rises.
 Keep R1 ints in memory in canonical form, NReq=893436.
 SCF Done:  E(RB3LYP) =  -76.3861166006     A.U. after    1 cycles
             Convg  =    0.2201D-09             -V/T =  2.0051
 QCSCF skips out because SCF is already converged.
 Range of M.O.s used for correlation:     1    13
 NBasis=    13 NAE=     5 NBE=     5 NFC=     0 NFV=     0
 NROrb=     13 NOA=     5 NOB=     5 NVA=     8 NVB=     8
 Symmetrizing basis deriv contribution to polar:
 IMax=3 JMax=2 DiffMx= 0.00D+00
 G2DrvN: will do     4 centers at a time, making    1 passes doing MaxLOS=1.
 Calling FoFCou, ICntrl=  3107 FMM=F I1Cent=   0 AccDes= 0.00D+00.
 FoFDir/FoFCou used for L=0 through L=1.
 End of G2Drv Frequency-dependent properties file   721 does not exist.
 End of G2Drv Frequency-dependent properties file   722 does not exist.
          IDoAtm=111
          Differentiating once with respect to electric field.
                with respect to dipole field.
          Differentiating once with respect to nuclear coordinates.
          Keep R1 ints in memory in canonical form, NReq=805284.
          There are     9 degrees of freedom in the 1st order CPHF.  IDoFFX=4.
      9 vectors produced by pass  0 Test12= 4.44D-16 1.11D-08 XBig12= 3.58D+00 1.37D+00.
 AX will form     9 AO Fock derivatives at one time.
      9 vectors produced by pass  1 Test12= 4.44D-16 1.11D-08 XBig12= 3.25D-01 2.89D-01.
      9 vectors produced by pass  2 Test12= 4.44D-16 1.11D-08 XBig12= 1.81D-03 2.58D-02.
      8 vectors produced by pass  3 Test12= 4.44D-16 1.11D-08 XBig12= 5.23D-07 3.90D-04.
      3 vectors produced by pass  4 Test12= 4.44D-16 1.11D-08 XBig12= 1.33D-11 2.59D-06.
      1 vectors produced by pass  5 Test12= 4.44D-16 1.11D-08 XBig12= 1.62D-15 1.76D-08.
 Inverted reduced A of dimension    39 with in-core refinement.
 Isotropic polarizability for W=    0.000000        4.55 Bohr**3.
 End of Minotr Frequency-dependent properties file   721 does not exist.
 End of Minotr Frequency-dependent properties file   722 does not exist.

 **********************************************************************

            Population analysis using the SCF density.

 **********************************************************************

 Orbital symmetries:
       Occupied  (A1) (A1) (B2) (A1) (B1)
       Virtual   (A1) (B2) (B2) (A1) (B1) (A1) (B2) (A1)
 The electronic state is 1-A1.
 Alpha  occ. eigenvalues --  -19.13359  -1.00637  -0.52942  -0.34862  -0.28961
 Alpha virt. eigenvalues --    0.05277   0.14237   0.82185   0.85101   0.89052
 Alpha virt. eigenvalues --    0.94469   1.07115   1.40875
          Condensed to atoms (all electrons):
              1          2          3
     1  O    8.234748   0.241444   0.241444
     2  H    0.241444   0.432461  -0.032723
     3  H    0.241444  -0.032723   0.432461
 Mulliken atomic charges:
              1
     1  O   -0.717635
     2  H    0.358818
     3  H    0.358818
 Sum of Mulliken atomic charges =   0.00000
 Mulliken charges with hydrogens summed into heavy atoms:
              1
     1  O    0.000000
 Sum of Mulliken charges with hydrogens summed into heavy atoms =   0.00000
 APT atomic charges:
              1
     1  O   -0.503984
     2  H    0.251992
     3  H    0.251992
 Sum of APT charges=   0.00000
 APT Atomic charges with hydrogens summed into heavy atoms:
              1
     1  O    0.000000
     2  H    0.000000
     3  H    0.000000
 Sum of APT charges=   0.00000
 Electronic spatial extent (au):  <R**2>=             19.3935
 Charge=              0.0000 electrons
 Dipole moment (field-independent basis, Debye):
    X=              0.0000    Y=              0.0000    Z=             -2.3989  Tot=              2.3989
 Quadrupole moment (field-independent basis, Debye-Ang):
   XX=             -7.2019   YY=             -4.1162   ZZ=             -6.2440
   XY=              0.0000   XZ=              0.0000   YZ=              0.0000
 Traceless Quadrupole moment (field-independent basis, Debye-Ang):
   XX=             -1.3479   YY=              1.7379   ZZ=             -0.3900
   XY=              0.0000   XZ=              0.0000   YZ=              0.0000
 Octapole moment (field-independent basis, Debye-Ang**2):
  XXX=              0.0000  YYY=              0.0000  ZZZ=             -1.2792  XYY=              0.0000
  XXY=              0.0000  XXZ=             -0.3662  XZZ=              0.0000  YZZ=              0.0000
  YYZ=             -1.1809  XYZ=              0.0000
 Hexadecapole moment (field-independent basis, Debye-Ang**3):
 XXXX=             -5.1967 YYYY=             -6.0932 ZZZZ=             -6.3287 XXXY=              0.0000
 XXXZ=              0.0000 YYYX=              0.0000 YYYZ=              0.0000 ZZZX=              0.0000
 ZZZY=              0.0000 XXYY=             -2.1384 XXZZ=             -1.9619 YYZZ=             -1.8121
 XXYZ=              0.0000 YYXZ=              0.0000 ZZXY=              0.0000
 N-N= 9.009527972489D+00 E-N=-1.987525108309D+02  KE= 7.600203582039D+01
 Symmetry A1   KE= 6.788563396515D+01
 Symmetry A2   KE= 0.000000000000D+00
 Symmetry B1   KE= 4.607517960449D+00
 Symmetry B2   KE= 3.508883894793D+00
  Exact polarizability:   1.450   0.000   7.499   0.000   0.000   4.709
 Approx polarizability:   1.389   0.000   8.689   0.000   0.000   5.533
 Calling FoFJK, ICntrl=    100127 FMM=F ISym2X=1 I1Cent= 0 IOpClX= 0 NMat=1 NMatS=1 NMatT=0.
 Full mass-weighted force constant matrix:
 Low frequencies ---   -0.0006    0.0005    0.0023   10.4580   31.2902   42.7192
 Low frequencies --- 1619.5898 3614.8693 3779.7784
 Harmonic frequencies (cm**-1), IR intensities (KM/Mole), Raman scattering
 activities (A**4/AMU), depolarization ratios for plane and unpolarized
 incident light, reduced masses (AMU), force constants (mDyne/A),
 and normal coordinates:
                     1                      2                      3
                    A1                     A1                     B2
 Frequencies --  1619.5898              3614.8693              3779.7784
 Red. masses --     1.0918                 1.0368                 1.0856
 Frc consts  --     1.6873                 7.9827                 9.1379
 IR Inten    --    68.3037                 4.4197                 8.7731
  Atom  AN      X      Y      Z        X      Y      Z        X      Y      Z
     1   8     0.00   0.00   0.07     0.00   0.00   0.04     0.00   0.07   0.00
     2   1     0.00  -0.38  -0.59     0.00   0.61  -0.35     0.00  -0.57   0.41
     3   1     0.00   0.38  -0.59     0.00  -0.61  -0.35     0.00  -0.57  -0.41

 -------------------
 - Thermochemistry -
 -------------------
 Temperature   298.150 Kelvin.  Pressure   1.00000 Atm.
 Atom     1 has atomic number  8 and mass  15.99491
 Atom     2 has atomic number  1 and mass   1.00783
 Atom     3 has atomic number  1 and mass   1.00783
 Molecular mass:    18.01056 amu.
 Principal axes and moments of inertia in atomic units:
                           1         2         3
     Eigenvalues --     2.08968   4.50365   6.59333
           X            0.00000   0.00000   1.00000
           Y            1.00000   0.00000   0.00000
           Z            0.00000   1.00000   0.00000
 This molecule is an asymmetric top.
 Rotational symmetry number  2.
 Rotational temperatures (Kelvin)     41.44838    19.23190    13.13658
 Rotational constants (GHZ):         863.64514   400.72826   273.72216
 Zero-point vibrational energy      53917.1 (Joules/Mol)
                                   12.88650 (Kcal/Mol)
 Vibrational temperatures:   2330.23  5200.98  5438.25
          (Kelvin)
 
 Zero-point correction=                           0.020536 (Hartree/Particle)
 Thermal correction to Energy=                    0.023371
 Thermal correction to Enthalpy=                  0.024316
 Thermal correction to Gibbs Free Energy=         0.002867
 Sum of electronic and zero-point Energies=            -76.365581
 Sum of electronic and thermal Energies=               -76.362745
 Sum of electronic and thermal Enthalpies=             -76.361801
 Sum of electronic and thermal Free Energies=          -76.383250
 
                     E (Thermal)             CV                S
                      KCal/Mol        Cal/Mol-Kelvin    Cal/Mol-Kelvin
 Total                   14.666              6.011             45.142
 Electronic               0.000              0.000              0.000
 Translational            0.889              2.981             34.608
 Rotational               0.889              2.981             10.527
 Vibrational             12.888              0.049              0.007
                       Q            Log10(Q)             Ln(Q)
 Total Bot       0.480014D-01         -1.318746         -3.036524
 Total V=0       0.134002D+09          8.127113         18.713368
 Vib (Bot)       0.358358D-09         -9.445683        -21.749489
 Vib (V=0)       0.100040D+01          0.000175          0.000404
 Electronic      0.100000D+01          0.000000          0.000000
 Translational   0.300432D+07          6.477746         14.915562
 Rotational      0.445852D+02          1.649191          3.797403
 ***** Axes restored to original set *****
 -------------------------------------------------------------------
 Center     Atomic                   Forces (Hartrees/Bohr)
 Number     Number              X              Y              Z
 -------------------------------------------------------------------
      1        8           0.000000000    0.000000000    0.000154980
      2        1           0.000000000   -0.000063016   -0.000077490
      3        1           0.000000000    0.000063016   -0.000077490
 -------------------------------------------------------------------
 Cartesian Forces:  Max     0.000154980 RMS     0.000069897

 GradGradGradGradGradGradGradGradGradGradGradGradGradGradGradGradGradGrad
 Berny optimization.
 Internal  Forces:  Max     0.000096466 RMS     0.000083448
 Search for a local minimum.
 Step number   1 out of a maximum of    2
 All quantities printed in internal units (Hartrees-Bohrs-Radians)
 Second derivative matrix not updated -- analytic derivatives used.
 The second derivative matrix:
                          R1        R2        A1
           R1           0.49064
           R2          -0.01256   0.49064
           A1           0.04336   0.04336   0.16531
 ITU=  0
     Eigenvalues ---    0.15372   0.48968   0.50319
 Angle between quadratic step and forces=  31.47 degrees.
 Linear search not attempted -- first point.
 Iteration  1 RMS(Cart)=  0.00021349 RMS(Int)=  0.00000004
 Iteration  2 RMS(Cart)=  0.00000005 RMS(Int)=  0.00000000
 ClnCor:  largest displacement from symmetrization is 3.07D-14 for atom     3.
 Variable       Old X    -DE/DX   Delta X   Delta X   Delta X     New X
                                 (Linear)    (Quad)   (Total)
    R1        1.84437  -0.00010   0.00000  -0.00024  -0.00024   1.84413
    R2        1.84437  -0.00010   0.00000  -0.00024  -0.00024   1.84413
    A1        1.88984   0.00005   0.00000   0.00041   0.00041   1.89025
         Item               Value     Threshold  Converged?
 Maximum Force            0.000096     0.000450     YES
 RMS     Force            0.000083     0.000300     YES
 Maximum Displacement     0.000300     0.001800     YES
 RMS     Displacement     0.000213     0.001200     YES
 Predicted change in Energy=-3.298261D-08
 Optimization completed.
    -- Stationary point found.
                           ----------------------------
                           !   Optimized Parameters   !
                           ! (Angstroms and Degrees)  !
 --------------------------                            --------------------------
 ! Name  Definition              Value          Derivative Info.                !
 --------------------------------------------------------------------------------
 ! R1    R(1,2)                  0.976          -DE/DX =   -0.0001              !
 ! R2    R(1,3)                  0.976          -DE/DX =   -0.0001              !
 ! A1    A(2,1,3)              108.2797         -DE/DX =    0.0                 !
 --------------------------------------------------------------------------------
 GradGradGradGradGradGradGradGradGradGradGradGradGradGradGradGradGradGrad

 1\1\GINC-COMPUTE-0-2\Freq\RB3LYP\6-31G\H2O1\VIJI\04-Jun-2025\0\\#N Geo
 m=AllCheck Guess=TCheck SCRF=Check GenChk RB3LYP/6-31G Freq\\H20_M\\0,
 1\O,-2.9396,0.,-1.5038665714\H,-2.9396,0.7909992003,-0.9321167143\H,-2
 .9396,-0.7909992003,-0.9321167143\\Version=AM64L-G09RevB.01\State=1-A1
 \HF=-76.3861166\RMSD=2.201e-10\RMSF=6.990e-05\ZeroPoint=0.0205359\Ther
 mal=0.0233715\Dipole=0.,0.,0.9438097\DipoleDeriv=-0.8735344,0.,0.,0.,-
 0.3817431,0.,0.,0.,-0.2566748,0.4367672,0.,0.,0.,0.1908715,-0.1380016,
 0.,-0.1777259,0.1283374,0.4367672,0.,0.,0.,0.1908715,0.1380016,0.,0.17
 77259,0.1283374\Polar=1.4501402,0.,7.4994829,0.,0.,4.7093638\PG=C02V [
 C2(O1),SGV(H2)]\NImag=0\\0.00012363,0.,0.66103441,0.,0.,0.36654995,-0.
 00006181,0.,0.,0.00003299,0.,-0.33051720,-0.16605433,0.,0.36128530,0.,
 -0.23891823,-0.18327498,0.,0.20248628,0.17801724,-0.00006181,0.,0.,0.0
 0002882,0.,0.,0.00003299,0.,-0.33051720,0.16605433,0.,-0.03076809,0.03
 643195,0.,0.36128530,0.,0.23891823,-0.18327498,0.,-0.03643195,0.005257
 73,0.,-0.20248628,0.17801724\\0.,0.,-0.00015498,0.,0.00006302,0.000077
 49,0.,-0.00006302,0.00007749\\\@


 A people that values its privileges above its principles soon loses both.
 -- Dwight D. Eisenhower
 Job cpu time:  0 days  0 hours  0 minutes  7.0 seconds.
 File lengths (MBytes):  RWF=      5 Int=      0 D2E=      0 Chk=      1 Scr=      1
 Normal termination of Gaussian 09 at Wed Jun  4 13:12:07 2025.
