 Entering Gaussian System, Link 0=g09
 Input=C2H6_d.gjf
 Output=C2H6_d.log
 Initial command:
 /share/apps/g09/l1.exe /scratch/Gau-9353.inp -scrdir=/scratch/
 Entering Link 1 = /share/apps/g09/l1.exe PID=      9354.
  
 Copyright (c) 1988,1990,1992,1993,1995,1998,2003,2009,2010,
            Gaussian, Inc.  All Rights Reserved.
  
 This is part of the Gaussian(R) 09 program.  It is based on
 the Gaussian(R) 03 system (copyright 2003, Gaussian, Inc.),
 the Gaussian(R) 98 system (copyright 1998, Gaussian, Inc.),
 the Gaussian(R) 94 system (copyright 1995, Gaussian, Inc.),
 the Gaussian 92(TM) system (copyright 1992, Gaussian, Inc.),
 the Gaussian 90(TM) system (copyright 1990, Gaussian, Inc.),
 the Gaussian 88(TM) system (copyright 1988, Gaussian, Inc.),
 the Gaussian 86(TM) system (copyright 1986, Carnegie Mellon
 University), and the Gaussian 82(TM) system (copyright 1983,
 Carnegie Mellon University). Gaussian is a federally registered
 trademark of Gaussian, Inc.
  
 This software contains proprietary and confidential information,
 including trade secrets, belonging to Gaussian, Inc.
  
 This software is provided under written license and may be
 used, copied, transmitted, or stored only in accord with that
 written license.
  
 The following legend is applicable only to US Government
 contracts under FAR:
  
                    RESTRICTED RIGHTS LEGEND
  
 Use, reproduction and disclosure by the US Government is
 subject to restrictions as set forth in subparagraphs (a)
 and (c) of the Commercial Computer Software - Restricted
 Rights clause in FAR 52.227-19.
  
 Gaussian, Inc.
 340 Quinnipiac St., Bldg. 40, Wallingford CT 06492
  
  
 ---------------------------------------------------------------
 Warning -- This program may not be used in any manner that
 competes with the business of Gaussian, Inc. or will provide
 assistance to any competitor of Gaussian, Inc.  The licensee
 of this program is prohibited from giving any competitor of
 Gaussian, Inc. access to this program.  By using this program,
 the user acknowledges that Gaussian, Inc. is engaged in the
 business of creating and licensing software in the field of
 computational chemistry and represents and warrants to the
 licensee that it is not a competitor of Gaussian, Inc. and that
 it will not use this program in any manner prohibited above.
 ---------------------------------------------------------------
  

 Cite this work as:
 Gaussian 09, Revision B.01,
 M. J. Frisch, G. W. Trucks, H. B. Schlegel, G. E. Scuseria, 
 M. A. Robb, J. R. Cheeseman, G. Scalmani, V. Barone, B. Mennucci, 
 G. A. Petersson, H. Nakatsuji, M. Caricato, X. Li, H. P. Hratchian, 
 A. F. Izmaylov, J. Bloino, G. Zheng, J. L. Sonnenberg, M. Hada, 
 M. Ehara, K. Toyota, R. Fukuda, J. Hasegawa, M. Ishida, T. Nakajima, 
 Y. Honda, O. Kitao, H. Nakai, T. Vreven, J. A. Montgomery, Jr., 
 J. E. Peralta, F. Ogliaro, M. Bearpark, J. J. Heyd, E. Brothers, 
 K. N. Kudin, V. N. Staroverov, T. Keith, R. Kobayashi, J. Normand, 
 K. Raghavachari, A. Rendell, J. C. Burant, S. S. Iyengar, J. Tomasi, 
 M. Cossi, N. Rega, J. M. Millam, M. Klene, J. E. Knox, J. B. Cross, 
 V. Bakken, C. Adamo, J. Jaramillo, R. Gomperts, R. E. Stratmann, 
 O. Yazyev, A. J. Austin, R. Cammi, C. Pomelli, J. W. Ochterski, 
 R. L. Martin, K. Morokuma, V. G. Zakrzewski, G. A. Voth, 
 P. Salvador, J. J. Dannenberg, S. Dapprich, A. D. Daniels, 
 O. Farkas, J. B. Foresman, J. V. Ortiz, J. Cioslowski, 
 and D. J. Fox, Gaussian, Inc., Wallingford CT, 2010.
 
 ******************************************
 Gaussian 09:  AM64L-G09RevB.01 12-Aug-2010
                 5-Jun-2025 
 ******************************************
 %nprocshared=8
 Will use up to    8 processors via shared memory.
 %mem=10GB
 --------------------------------------------------------------
 # b3lyp/6-31g pop=(full,nbo) geom=connectivity scf=xqc gfinput
 --------------------------------------------------------------
 1/38=1,57=2/1;
 2/12=2,17=6,18=5,40=1/2;
 3/5=1,6=6,11=2,16=1,24=10,25=1,30=1,74=-5/1,2,3;
 4//1;
 5/5=2,8=3,13=1,38=5/2,8;
 6/7=3,28=1/1,7;
 99/5=1,9=1/99;
 ------
 C2H6_M
 ------
 Symbolic Z-matrix:
 Charge =  0 Multiplicity = 1
 C                    -0.76737  -0.00001  0. 
 H                    -1.16663  -1.02141  -0.00035 
 H                    -1.16654   0.51043   0.88475 
 H                    -1.16656   0.51106  -0.88438 
 C                     0.76737   0.       0. 
 H                     1.16656  -0.51044  -0.88474 
 H                     1.16662   1.02141   0.00036 
 H                     1.16654  -0.51104   0.8844 
 
                          Input orientation:                          
 ---------------------------------------------------------------------
 Center     Atomic      Atomic             Coordinates (Angstroms)
 Number     Number       Type             X           Y           Z
 ---------------------------------------------------------------------
      1          6           0       -0.767367   -0.000005   -0.000003
      2          1           0       -1.166625   -1.021405   -0.000351
      3          1           0       -1.166543    0.510431    0.884747
      4          1           0       -1.166557    0.511063   -0.884379
      5          6           0        0.767368    0.000001   -0.000003
      6          1           0        1.166555   -0.510441   -0.884740
      7          1           0        1.166622    1.021409    0.000357
      8          1           0        1.166541   -0.511035    0.884400
 ---------------------------------------------------------------------
                    Distance matrix (angstroms):
                    1          2          3          4          5
     1  C    0.000000
     2  H    1.096661   0.000000
     3  H    1.096663   1.769158   0.000000
     4  H    1.096660   1.769170   1.769126   0.000000
     5  C    1.534735   2.187144   2.187083   2.187092   0.000000
     6  H    2.187089   2.546951   3.101066   2.546936   1.096659
     7  H    2.187144   3.101150   2.546940   2.546946   1.096667
     8  H    2.187080   2.546944   2.546895   3.101066   1.096661
                    6          7          8
     6  H    0.000000
     7  H    1.769170   0.000000
     8  H    1.769140   1.769157   0.000000
 Stoichiometry    C2H6
 Framework group  C1[X(C2H6)]
 Deg. of freedom    18
 Full point group                 C1      NOp   1
 Largest Abelian subgroup         C1      NOp   1
 Largest concise Abelian subgroup C1      NOp   1
                         Standard orientation:                         
 ---------------------------------------------------------------------
 Center     Atomic      Atomic             Coordinates (Angstroms)
 Number     Number       Type             X           Y           Z
 ---------------------------------------------------------------------
      1          6           0       -0.767367   -0.000005   -0.000003
      2          1           0       -1.166625   -1.021404    0.001653
      3          1           0       -1.166543    0.512166    0.883744
      4          1           0       -1.166557    0.509326   -0.885380
      5          6           0        0.767368    0.000001   -0.000003
      6          1           0        1.166555   -0.512176   -0.883737
      7          1           0        1.166622    1.021408   -0.001647
      8          1           0        1.166541   -0.509298    0.885401
 ---------------------------------------------------------------------
 Rotational constants (GHZ):     80.1070998     19.8063155     19.8062024
 Standard basis: 6-31G (6D, 7F)
 AO basis set in the form of general basis input (Overlap normalization):
      1 0
 S   6 1.00       0.000000000000
      0.3047524880D+04  0.1834737132D-02
      0.4573695180D+03  0.1403732281D-01
      0.1039486850D+03  0.6884262226D-01
      0.2921015530D+02  0.2321844432D+00
      0.9286662960D+01  0.4679413484D+00
      0.3163926960D+01  0.3623119853D+00
 SP   3 1.00       0.000000000000
      0.7868272350D+01 -0.1193324198D+00  0.6899906659D-01
      0.1881288540D+01 -0.1608541517D+00  0.3164239610D+00
      0.5442492580D+00  0.1143456438D+01  0.7443082909D+00
 SP   1 1.00       0.000000000000
      0.1687144782D+00  0.1000000000D+01  0.1000000000D+01
 ****
      2 0
 S   3 1.00       0.000000000000
      0.1873113696D+02  0.3349460434D-01
      0.2825394365D+01  0.2347269535D+00
      0.6401216923D+00  0.8137573261D+00
 S   1 1.00       0.000000000000
      0.1612777588D+00  0.1000000000D+01
 ****
      3 0
 S   3 1.00       0.000000000000
      0.1873113696D+02  0.3349460434D-01
      0.2825394365D+01  0.2347269535D+00
      0.6401216923D+00  0.8137573261D+00
 S   1 1.00       0.000000000000
      0.1612777588D+00  0.1000000000D+01
 ****
      4 0
 S   3 1.00       0.000000000000
      0.1873113696D+02  0.3349460434D-01
      0.2825394365D+01  0.2347269535D+00
      0.6401216923D+00  0.8137573261D+00
 S   1 1.00       0.000000000000
      0.1612777588D+00  0.1000000000D+01
 ****
      5 0
 S   6 1.00       0.000000000000
      0.3047524880D+04  0.1834737132D-02
      0.4573695180D+03  0.1403732281D-01
      0.1039486850D+03  0.6884262226D-01
      0.2921015530D+02  0.2321844432D+00
      0.9286662960D+01  0.4679413484D+00
      0.3163926960D+01  0.3623119853D+00
 SP   3 1.00       0.000000000000
      0.7868272350D+01 -0.1193324198D+00  0.6899906659D-01
      0.1881288540D+01 -0.1608541517D+00  0.3164239610D+00
      0.5442492580D+00  0.1143456438D+01  0.7443082909D+00
 SP   1 1.00       0.000000000000
      0.1687144782D+00  0.1000000000D+01  0.1000000000D+01
 ****
      6 0
 S   3 1.00       0.000000000000
      0.1873113696D+02  0.3349460434D-01
      0.2825394365D+01  0.2347269535D+00
      0.6401216923D+00  0.8137573261D+00
 S   1 1.00       0.000000000000
      0.1612777588D+00  0.1000000000D+01
 ****
      7 0
 S   3 1.00       0.000000000000
      0.1873113696D+02  0.3349460434D-01
      0.2825394365D+01  0.2347269535D+00
      0.6401216923D+00  0.8137573261D+00
 S   1 1.00       0.000000000000
      0.1612777588D+00  0.1000000000D+01
 ****
      8 0
 S   3 1.00       0.000000000000
      0.1873113696D+02  0.3349460434D-01
      0.2825394365D+01  0.2347269535D+00
      0.6401216923D+00  0.8137573261D+00
 S   1 1.00       0.000000000000
      0.1612777588D+00  0.1000000000D+01
 ****

 There are    30 symmetry adapted basis functions of A   symmetry.
 Integral buffers will be    131072 words long.
 Raffenetti 2 integral format.
 Two-electron integral symmetry is turned on.
    30 basis functions,    68 primitive gaussians,    30 cartesian basis functions
     9 alpha electrons        9 beta electrons
       nuclear repulsion energy        42.0475998818 Hartrees.
 NAtoms=    8 NActive=    8 NUniq=    8 SFac= 1.00D+00 NAtFMM=   50 NAOKFM=F Big=F
 One-electron integrals computed using PRISM.
 NBasis=    30 RedAO= T  NBF=    30
 NBsUse=    30 1.00D-06 NBFU=    30
 Harris functional with IExCor=  402 diagonalized for initial guess.
 ExpMin= 1.61D-01 ExpMax= 3.05D+03 ExpMxC= 4.57D+02 IAcc=1 IRadAn=         1 AccDes= 0.00D+00
 HarFok:  IExCor=  402 AccDes= 0.00D+00 IRadAn=         1 IDoV= 1
 ScaDFX=  1.000000  1.000000  1.000000  1.000000
 FoFCou: FMM=F IPFlag=           0 FMFlag=      100000 FMFlg1=           0
         NFxFlg=           0 DoJE=T BraDBF=F KetDBF=T FulRan=T
         Omega=  0.000000  0.000000  1.000000  0.000000  0.000000 ICntrl=     500 IOpCl=  0
         NMat0=    1 NMatS0=    1 NMatT0=    0 NMatD0=    1 NMtDS0=    0 NMtDT0=    0
         I1Cent=           4 NGrid=           0.
 Petite list used in FoFCou.
 Initial guess orbital symmetries:
       Occupied  (A) (A) (A) (A) (A) (A) (A) (A) (A)
       Virtual   (A) (A) (A) (A) (A) (A) (A) (A) (A) (A) (A) (A)
                 (A) (A) (A) (A) (A) (A) (A) (A) (A)
 The electronic state of the initial guess is 1-A.
 Requested convergence on RMS density matrix=1.00D-08 within  64 cycles.
 Requested convergence on MAX density matrix=1.00D-06.
 Requested convergence on             energy=1.00D-06.
 No special actions if energy rises.
 Keep R1 ints in memory in canonical form, NReq=1041875.
 Integral accuracy reduced to 1.0D-05 until final iterations.
 Initial convergence to 1.0D-05 achieved.  Increase integral accuracy.
 SCF Done:  E(RB3LYP) =  -79.8127354714     A.U. after   10 cycles
             Convg  =    0.1177D-08             -V/T =  2.0065
 QCSCF skips out because SCF is already converged.

 **********************************************************************

            Population analysis using the SCF density.

 **********************************************************************

 Orbital symmetries:
       Occupied  (A) (A) (A) (A) (A) (A) (A) (A) (A)
       Virtual   (A) (A) (A) (A) (A) (A) (A) (A) (A) (A) (A) (A)
                 (A) (A) (A) (A) (A) (A) (A) (A) (A)
 The electronic state is 1-A.
 Alpha  occ. eigenvalues --  -10.16692 -10.16680  -0.74935  -0.61501  -0.43130
 Alpha  occ. eigenvalues --   -0.43129  -0.36417  -0.34014  -0.34013
 Alpha virt. eigenvalues --    0.10396   0.15462   0.16328   0.16328   0.18966
 Alpha virt. eigenvalues --    0.18967   0.23950   0.54003   0.56103   0.56103
 Alpha virt. eigenvalues --    0.64870   0.64874   0.67361   0.91690   0.92751
 Alpha virt. eigenvalues --    0.92752   0.97266   0.97267   0.97857   1.08970
 Alpha virt. eigenvalues --    1.44473
     Molecular Orbital Coefficients:
                           1         2         3         4         5
                           O         O         O         O         O
     Eigenvalues --   -10.16692 -10.16680  -0.74935  -0.61501  -0.43130
   1 1   C  1S          0.70258   0.70502  -0.14889  -0.13016   0.00000
   2        2S          0.02536   0.02710   0.28456   0.25291   0.00000
   3        2PX        -0.00055   0.00025   0.05364  -0.12945   0.00001
   4        2PY         0.00000   0.00000   0.00001   0.00001   0.32015
   5        2PZ         0.00000   0.00000   0.00000   0.00000   0.00082
   6        3S         -0.01784  -0.02876   0.24484   0.27985  -0.00001
   7        3PX         0.00213  -0.00410   0.00526  -0.03225   0.00000
   8        3PY         0.00000   0.00000   0.00000   0.00000   0.14078
   9        3PZ         0.00000   0.00000   0.00000   0.00000   0.00036
  10 2   H  1S         -0.00055  -0.00014   0.08537   0.11829  -0.18098
  11        2S          0.00427   0.00387   0.01733   0.04399  -0.13817
  12 3   H  1S         -0.00055  -0.00014   0.08538   0.11829   0.09114
  13        2S          0.00427   0.00387   0.01733   0.04399   0.06958
  14 4   H  1S         -0.00055  -0.00014   0.08538   0.11829   0.08984
  15        2S          0.00427   0.00387   0.01733   0.04399   0.06858
  16 5   C  1S          0.70500  -0.70260  -0.14889   0.13016   0.00000
  17        2S          0.02546  -0.02701   0.28456  -0.25291   0.00000
  18        2PX         0.00055   0.00026  -0.05364  -0.12945   0.00001
  19        2PY         0.00000   0.00000   0.00000   0.00001   0.32014
  20        2PZ         0.00000   0.00000   0.00000   0.00000   0.00083
  21        3S         -0.01794   0.02870   0.24484  -0.27985   0.00001
  22        3PX        -0.00212  -0.00410  -0.00526  -0.03225   0.00000
  23        3PY         0.00000   0.00000   0.00000   0.00000   0.14078
  24        3PZ         0.00000   0.00000   0.00000   0.00000   0.00037
  25 6   H  1S         -0.00055   0.00014   0.08538  -0.11829  -0.09115
  26        2S          0.00428  -0.00386   0.01733  -0.04399  -0.06959
  27 7   H  1S         -0.00055   0.00014   0.08537  -0.11829   0.18097
  28        2S          0.00428  -0.00386   0.01733  -0.04399   0.13816
  29 8   H  1S         -0.00055   0.00014   0.08538  -0.11829  -0.08983
  30        2S          0.00428  -0.00386   0.01733  -0.04399  -0.06858
                           6         7         8         9        10
                           O         O         O         O         V
     Eigenvalues --    -0.43129  -0.36417  -0.34014  -0.34013   0.10396
   1 1   C  1S          0.00000  -0.01790  -0.00001   0.00000  -0.09691
   2        2S          0.00000   0.03973   0.00002   0.00000   0.11511
   3        2PX         0.00000   0.41478   0.00011   0.00000  -0.12686
   4        2PY        -0.00083   0.00008  -0.31532   0.00034   0.00001
   5        2PZ         0.32014   0.00000   0.00033   0.31533   0.00001
   6        3S          0.00000   0.04903   0.00002   0.00000   1.57951
   7        3PX         0.00000   0.19244   0.00006   0.00000  -0.48910
   8        3PY        -0.00037   0.00003  -0.14923   0.00016   0.00008
   9        3PZ         0.14078   0.00000   0.00016   0.14924   0.00002
  10 2   H  1S          0.00076  -0.08285   0.22287   0.00012  -0.01522
  11        2S          0.00058  -0.07857   0.21324   0.00011  -0.78062
  12 3   H  1S          0.15635  -0.08275  -0.11158   0.19298  -0.01522
  13        2S          0.11936  -0.07848  -0.10675   0.18464  -0.78070
  14 4   H  1S         -0.15711  -0.08275  -0.11136  -0.19309  -0.01522
  15        2S         -0.11994  -0.07848  -0.10655  -0.18475  -0.78067
  16 5   C  1S          0.00000  -0.01790  -0.00001   0.00000  -0.09691
  17        2S          0.00000   0.03973   0.00002   0.00000   0.11511
  18        2PX         0.00000  -0.41478  -0.00011   0.00000   0.12686
  19        2PY        -0.00082  -0.00008   0.31533  -0.00033   0.00000
  20        2PZ         0.32015   0.00000  -0.00034  -0.31532   0.00001
  21        3S          0.00000   0.04903   0.00002   0.00000   1.57952
  22        3PX         0.00000  -0.19244  -0.00006   0.00000   0.48910
  23        3PY        -0.00036  -0.00003   0.14924  -0.00016  -0.00005
  24        3PZ         0.14078   0.00000  -0.00016  -0.14923   0.00002
  25 6   H  1S         -0.15635  -0.08275  -0.11158   0.19297  -0.01522
  26        2S         -0.11937  -0.07848  -0.10675   0.18463  -0.78066
  27 7   H  1S         -0.00076  -0.08285   0.22287   0.00012  -0.01522
  28        2S         -0.00058  -0.07856   0.21324   0.00012  -0.78064
  29 8   H  1S          0.15711  -0.08275  -0.11137  -0.19309  -0.01522
  30        2S          0.11994  -0.07848  -0.10655  -0.18475  -0.78069
                          11        12        13        14        15
                           V         V         V         V         V
     Eigenvalues --     0.15462   0.16328   0.16328   0.18966   0.18967
   1 1   C  1S         -0.12957   0.00004   0.00000   0.00000   0.00000
   2        2S          0.11212  -0.00003   0.00000   0.00000  -0.00001
   3        2PX        -0.03046   0.00003   0.00000   0.00000   0.00002
   4        2PY        -0.00011  -0.29602   0.00051  -0.00039   0.27866
   5        2PZ         0.00000  -0.00052  -0.29604  -0.27863  -0.00041
   6        3S          2.28046  -0.00087   0.00003  -0.00005  -0.00005
   7        3PX         0.25567  -0.00010  -0.00001  -0.00002   0.00006
   8        3PY        -0.00025  -0.77355   0.00130  -0.00178   1.26534
   9        3PZ        -0.00001  -0.00135  -0.77361  -1.26522  -0.00184
  10 2   H  1S         -0.01825  -0.09691   0.00032   0.00001   0.05458
  11        2S         -0.78476  -1.20033   0.00396   0.00028   1.34530
  12 3   H  1S         -0.01819   0.04874   0.08377   0.04727  -0.02729
  13        2S         -0.78410   0.60414   1.03786   1.16480  -0.67278
  14 4   H  1S         -0.01819   0.04818  -0.08410  -0.04728  -0.02728
  15        2S         -0.78413   0.59715  -1.04186  -1.16504  -0.67245
  16 5   C  1S          0.12957  -0.00005   0.00000   0.00000   0.00000
  17        2S         -0.11212   0.00003   0.00000   0.00000   0.00000
  18        2PX        -0.03046   0.00003   0.00000   0.00000  -0.00002
  19        2PY        -0.00011  -0.29604   0.00053   0.00039  -0.27864
  20        2PZ         0.00000  -0.00052  -0.29603   0.27865   0.00038
  21        3S         -2.28045   0.00092   0.00002   0.00005  -0.00006
  22        3PX         0.25567  -0.00008   0.00002  -0.00002  -0.00004
  23        3PY        -0.00026  -0.77362   0.00142   0.00179  -1.26528
  24        3PZ         0.00001  -0.00137  -0.77356   1.26527   0.00174
  25 6   H  1S          0.01819  -0.04875  -0.08377   0.04727  -0.02730
  26        2S          0.78413  -0.60422  -1.03777   1.16482  -0.67288
  27 7   H  1S          0.01825   0.09691  -0.00033   0.00001   0.05458
  28        2S          0.78476   1.20039  -0.00414   0.00026   1.34520
  29 8   H  1S          0.01819  -0.04818   0.08410  -0.04729  -0.02727
  30        2S          0.78409  -0.59719   1.04187  -1.16512  -0.67226
                          16        17        18        19        20
                           V         V         V         V         V
     Eigenvalues --     0.23950   0.54003   0.56103   0.56103   0.64870
   1 1   C  1S         -0.04833  -0.00426   0.00000   0.00000   0.00000
   2        2S          0.03276  -0.02317   0.00001   0.00001   0.00002
   3        2PX         0.36394  -0.66366  -0.00003   0.00000   0.00005
   4        2PY         0.00001   0.00005  -0.48373   0.01282   0.00081
   5        2PZ         0.00000   0.00001  -0.01285  -0.48374   0.71871
   6        3S          0.93593  -0.54862   0.00011  -0.00002  -0.00005
   7        3PX         1.74564   1.00638   0.00016   0.00001  -0.00011
   8        3PY         0.00002  -0.00011   0.87451  -0.02319  -0.00215
   9        3PZ         0.00000  -0.00001   0.02323   0.87451  -1.89668
  10 2   H  1S          0.05630   0.11559   0.42499  -0.01196   0.00009
  11        2S          0.42175   0.09378   0.15337  -0.00432   0.00030
  12 3   H  1S          0.05631   0.11560  -0.22283  -0.36206   0.16802
  13        2S          0.42163   0.09376  -0.08042  -0.13064   0.55563
  14 4   H  1S          0.05631   0.11560  -0.20210   0.37403  -0.16813
  15        2S          0.42164   0.09376  -0.07294   0.13496  -0.55597
  16 5   C  1S          0.04833  -0.00426   0.00000   0.00000   0.00000
  17        2S         -0.03276  -0.02317   0.00000   0.00001  -0.00002
  18        2PX         0.36394   0.66367  -0.00008   0.00001   0.00005
  19        2PY         0.00001  -0.00008  -0.48374   0.01286  -0.00083
  20        2PZ         0.00000   0.00001  -0.01283  -0.48372  -0.71872
  21        3S         -0.93594  -0.54862  -0.00009  -0.00002   0.00005
  22        3PX         1.74563  -1.00637   0.00022  -0.00002  -0.00011
  23        3PY         0.00003   0.00016   0.87451  -0.02325   0.00220
  24        3PZ         0.00001  -0.00001   0.02320   0.87450   1.89671
  25 6   H  1S         -0.05631   0.11561   0.22283   0.36205   0.16805
  26        2S         -0.42162   0.09376   0.08041   0.13066   0.55568
  27 7   H  1S         -0.05630   0.11556  -0.42500   0.01198   0.00009
  28        2S         -0.42176   0.09377  -0.15336   0.00432   0.00030
  29 8   H  1S         -0.05631   0.11562   0.20210  -0.37402  -0.16812
  30        2S         -0.42162   0.09376   0.07293  -0.13498  -0.55595
                          21        22        23        24        25
                           V         V         V         V         V
     Eigenvalues --     0.64874   0.67361   0.91690   0.92751   0.92752
   1 1   C  1S          0.00000   0.05309   0.06224   0.00001   0.00001
   2        2S          0.00000  -0.30100  -0.25899  -0.00001  -0.00002
   3        2PX        -0.00012  -0.80147   0.30421   0.00003   0.00008
   4        2PY        -0.71875   0.00010   0.00000   0.00288   0.65919
   5        2PZ         0.00083   0.00005  -0.00006   0.65922  -0.00286
   6        3S         -0.00009   0.74701   0.21931   0.00000   0.00000
   7        3PX         0.00024   1.64111  -0.07770  -0.00001  -0.00008
   8        3PY         1.89694  -0.00024  -0.00001  -0.00410  -0.94312
   9        3PZ        -0.00221  -0.00012   0.00008  -0.94314   0.00410
  10 2   H  1S          0.19408   0.13392   0.54402   0.00182   0.63271
  11        2S          0.64206   0.25695  -0.31997  -0.00351  -1.26078
  12 3   H  1S         -0.09707   0.13397   0.54398  -0.54877  -0.31478
  13        2S         -0.32122   0.25713  -0.31997   1.09363   0.62736
  14 4   H  1S         -0.09694   0.13396   0.54387   0.54711  -0.31775
  15        2S         -0.32073   0.25705  -0.31978  -1.09019   0.63331
  16 5   C  1S          0.00000  -0.05309   0.06224   0.00001   0.00001
  17        2S          0.00003   0.30100  -0.25902  -0.00001   0.00000
  18        2PX         0.00002  -0.80146  -0.30422  -0.00003   0.00002
  19        2PY         0.71874   0.00002  -0.00011   0.00287   0.65922
  20        2PZ        -0.00081  -0.00005  -0.00006   0.65919  -0.00289
  21        3S         -0.00015  -0.74702   0.21935   0.00000   0.00000
  22        3PX        -0.00006   1.64110   0.07774   0.00001  -0.00006
  23        3PY        -1.89691   0.00000   0.00016  -0.00412  -0.94312
  24        3PZ         0.00214   0.00012   0.00008  -0.94313   0.00412
  25 6   H  1S         -0.09711  -0.13395   0.54383   0.54879   0.31487
  26        2S         -0.32127  -0.25700  -0.31970  -1.09360  -0.62740
  27 7   H  1S          0.19405  -0.13394   0.54415  -0.00165  -0.63268
  28        2S          0.64202  -0.25703  -0.32022   0.00340   1.26081
  29 8   H  1S         -0.09692  -0.13396   0.54394  -0.54698   0.31792
  30        2S         -0.32071  -0.25708  -0.31989   1.09012  -0.63344
                          26        27        28        29        30
                           V         V         V         V         V
     Eigenvalues --     0.97266   0.97267   0.97857   1.08970   1.44473
   1 1   C  1S         -0.00001   0.00001   0.04384  -0.02837  -0.11306
   2        2S          0.00014  -0.00032  -0.99572  -1.65022  -1.62527
   3        2PX        -0.00007   0.00009   0.35849  -0.04185  -0.04545
   4        2PY        -0.00008  -0.41089   0.00003   0.00002  -0.00002
   5        2PZ        -0.41088   0.00013  -0.00007   0.00000   0.00000
   6        3S         -0.00027   0.00061   2.02209   3.10550   5.49816
   7        3PX         0.00011  -0.00012  -0.55887  -0.45388   1.37185
   8        3PY         0.00002   0.16456   0.00003   0.00010   0.00014
   9        3PZ         0.16467  -0.00007   0.00003   0.00002   0.00003
  10 2   H  1S          0.00102  -0.78643   0.40367  -0.09844  -0.47021
  11        2S         -0.00108   0.86645  -0.82648  -0.79743  -0.43214
  12 3   H  1S          0.68051   0.39432   0.40363  -0.09857  -0.47028
  13        2S         -0.74984  -0.43455  -0.82644  -0.79739  -0.43223
  14 4   H  1S         -0.68173   0.39252   0.40342  -0.09855  -0.47026
  15        2S          0.75130  -0.43260  -0.82621  -0.79739  -0.43222
  16 5   C  1S          0.00001   0.00000  -0.04384  -0.02837   0.11306
  17        2S         -0.00014  -0.00001   0.99571  -1.65022   1.62527
  18        2PX        -0.00007   0.00000   0.35848   0.04185  -0.04545
  19        2PY         0.00013   0.41083  -0.00009  -0.00001  -0.00001
  20        2PZ         0.41093  -0.00008   0.00007   0.00000   0.00000
  21        3S          0.00027  -0.00005  -2.02209   3.10549  -5.49815
  22        3PX         0.00011  -0.00002  -0.55886   0.45387   1.37186
  23        3PY        -0.00007  -0.16448   0.00007  -0.00009   0.00009
  24        3PZ        -0.16472   0.00001  -0.00003   0.00002  -0.00003
  25 6   H  1S          0.68071   0.39422  -0.40352  -0.09854   0.47025
  26        2S         -0.75020  -0.43434   0.82633  -0.79740   0.43221
  27 7   H  1S          0.00111  -0.78648  -0.40342  -0.09846   0.47023
  28        2S         -0.00127   0.86659   0.82621  -0.79741   0.43215
  29 8   H  1S         -0.68162   0.39233  -0.40373  -0.09856   0.47027
  30        2S          0.75109  -0.43223   0.82657  -0.79739   0.43222
     Density Matrix:
                           1         2         3         4         5
   1 1   C  1S          2.06022
   2        2S         -0.07816   0.29579
   3        2PX         0.00247  -0.00201   0.38335
   4        2PY         0.00000   0.00000   0.00000   0.40385
   5        2PZ         0.00000   0.00000   0.00000   0.00000   0.40385
   6        3S         -0.21314   0.28233  -0.00551   0.00000   0.00000
   7        3PX        -0.00284   0.00186   0.16855  -0.00001   0.00000
   8        3PY         0.00000   0.00000   0.00000   0.18425   0.00000
   9        3PZ         0.00000   0.00000   0.00000   0.00000   0.18426
  10 2   H  1S         -0.05423   0.10181  -0.09015  -0.25644   0.00041
  11        2S         -0.00234   0.02631  -0.07466  -0.22296   0.00036
  12 3   H  1S         -0.05422   0.10181  -0.09014   0.12859   0.22189
  13        2S         -0.00234   0.02630  -0.07466   0.11179   0.19291
  14 4   H  1S         -0.05422   0.10181  -0.09014   0.12787  -0.22230
  15        2S         -0.00234   0.02630  -0.07466   0.11117  -0.19327
  16 5   C  1S          0.01104  -0.02263  -0.06565   0.00000   0.00000
  17        2S         -0.02263   0.03701   0.12892   0.00000   0.00000
  18        2PX         0.06565  -0.12892  -0.31632   0.00001   0.00000
  19        2PY         0.00000   0.00000   0.00001   0.00613   0.00000
  20        2PZ         0.00000   0.00000   0.00000   0.00000   0.00613
  21        3S          0.01344   0.00233   0.13942   0.00000   0.00000
  22        3PX         0.00809  -0.03493  -0.15185   0.00001   0.00000
  23        3PY         0.00000   0.00000   0.00001  -0.00397   0.00000
  24        3PZ         0.00000   0.00000   0.00000   0.00000  -0.00398
  25 6   H  1S          0.00777  -0.01784  -0.02889   0.01238   0.02136
  26        2S          0.00968  -0.01862  -0.05188   0.02308   0.03983
  27 7   H  1S          0.00777  -0.01784  -0.02889  -0.02469   0.00004
  28        2S          0.00968  -0.01861  -0.05188  -0.04603   0.00007
  29 8   H  1S          0.00777  -0.01784  -0.02889   0.01231  -0.02140
  30        2S          0.00968  -0.01862  -0.05189   0.02295  -0.03990
                           6         7         8         9        10
   6        3S          0.28362
   7        3PX         0.00355   0.07624
   8        3PY         0.00000   0.00000   0.08418
   9        3PZ         0.00000   0.00000   0.00000   0.08418
  10 2   H  1S          0.09993  -0.03860  -0.11748   0.00019   0.22114
  11        2S          0.02504  -0.03288  -0.10255   0.00016   0.17144
  12 3   H  1S          0.09992  -0.03859   0.05891   0.10165  -0.02617
  13        2S          0.02503  -0.03288   0.05142   0.08874  -0.04618
  14 4   H  1S          0.09992  -0.03860   0.05858  -0.10184  -0.02617
  15        2S          0.02503  -0.03289   0.05113  -0.08890  -0.04618
  16 5   C  1S          0.01344  -0.00809   0.00000   0.00000   0.00777
  17        2S          0.00233   0.03493   0.00000   0.00000  -0.01784
  18        2PX        -0.13943  -0.15185   0.00001   0.00000   0.02889
  19        2PY         0.00000   0.00001  -0.00397   0.00000   0.02469
  20        2PZ         0.00000   0.00000   0.00000  -0.00398  -0.00004
  21        3S         -0.03294   0.03918   0.00000   0.00000  -0.03251
  22        3PX        -0.03919  -0.07202   0.00000   0.00000   0.02334
  23        3PY         0.00000   0.00000  -0.00490   0.00000   0.01557
  24        3PZ         0.00000   0.00000   0.00000  -0.00490  -0.00003
  25 6   H  1S         -0.03251  -0.02334   0.00781   0.01347  -0.01663
  26        2S         -0.02376  -0.02715   0.01241   0.02142  -0.01698
  27 7   H  1S         -0.03251  -0.02334  -0.01557   0.00002   0.03416
  28        2S         -0.02376  -0.02714  -0.02475   0.00004   0.05061
  29 8   H  1S         -0.03251  -0.02334   0.00776  -0.01350  -0.01663
  30        2S         -0.02376  -0.02715   0.01234  -0.02146  -0.01698
                          11        12        13        14        15
  11        2S          0.14600
  12 3   H  1S         -0.04618   0.22114
  13        2S         -0.04771   0.17144   0.14601
  14 4   H  1S         -0.04618  -0.02616  -0.04618   0.22114
  15        2S         -0.04770  -0.04618  -0.04771   0.17144   0.14601
  16 5   C  1S          0.00968   0.00777   0.00968   0.00777   0.00968
  17        2S         -0.01861  -0.01784  -0.01862  -0.01784  -0.01862
  18        2PX         0.05188   0.02889   0.05189   0.02889   0.05188
  19        2PY         0.04603  -0.01238  -0.02308  -0.01231  -0.02295
  20        2PZ        -0.00007  -0.02136  -0.03983   0.02140   0.03990
  21        3S         -0.02376  -0.03251  -0.02376  -0.03251  -0.02376
  22        3PX         0.02714   0.02334   0.02715   0.02334   0.02715
  23        3PY         0.02475  -0.00781  -0.01241  -0.00777  -0.01234
  24        3PZ        -0.00004  -0.01347  -0.02142   0.01350   0.02146
  25 6   H  1S         -0.01698   0.03416   0.05061  -0.01663  -0.01698
  26        2S         -0.01733   0.05061   0.06185  -0.01698  -0.01733
  27 7   H  1S          0.05061  -0.01663  -0.01698  -0.01663  -0.01698
  28        2S          0.06184  -0.01698  -0.01733  -0.01698  -0.01733
  29 8   H  1S         -0.01698  -0.01663  -0.01698   0.03416   0.05061
  30        2S         -0.01733  -0.01698  -0.01733   0.05061   0.06185
                          16        17        18        19        20
  16 5   C  1S          2.06022
  17        2S         -0.07816   0.29579
  18        2PX        -0.00247   0.00201   0.38335
  19        2PY         0.00000   0.00000   0.00000   0.40385
  20        2PZ         0.00000   0.00000   0.00000   0.00000   0.40385
  21        3S         -0.21314   0.28233   0.00551   0.00000   0.00000
  22        3PX         0.00284  -0.00186   0.16855  -0.00001   0.00000
  23        3PY         0.00000   0.00000   0.00000   0.18426   0.00000
  24        3PZ         0.00000   0.00000   0.00000   0.00000   0.18426
  25 6   H  1S         -0.05422   0.10181   0.09014  -0.12859  -0.22188
  26        2S         -0.00234   0.02631   0.07466  -0.11179  -0.19291
  27 7   H  1S         -0.05422   0.10181   0.09015   0.25644  -0.00041
  28        2S         -0.00234   0.02631   0.07466   0.22296  -0.00036
  29 8   H  1S         -0.05422   0.10181   0.09014  -0.12787   0.22230
  30        2S         -0.00234   0.02630   0.07466  -0.11117   0.19327
                          21        22        23        24        25
  21        3S          0.28362
  22        3PX        -0.00355   0.07624
  23        3PY         0.00000   0.00000   0.08418
  24        3PZ         0.00000   0.00000   0.00000   0.08418
  25 6   H  1S          0.09992   0.03860  -0.05891  -0.10165   0.22114
  26        2S          0.02503   0.03289  -0.05142  -0.08873   0.17144
  27 7   H  1S          0.09993   0.03859   0.11748  -0.00019  -0.02617
  28        2S          0.02504   0.03288   0.10255  -0.00017  -0.04618
  29 8   H  1S          0.09992   0.03860  -0.05858   0.10184  -0.02616
  30        2S          0.02503   0.03289  -0.05113   0.08890  -0.04618
                          26        27        28        29        30
  26        2S          0.14600
  27 7   H  1S         -0.04618   0.22114
  28        2S         -0.04770   0.17144   0.14600
  29 8   H  1S         -0.04618  -0.02617  -0.04618   0.22114
  30        2S         -0.04771  -0.04618  -0.04771   0.17144   0.14601
    Full Mulliken population analysis:
                           1         2         3         4         5
   1 1   C  1S          2.06022
   2        2S         -0.01712   0.29579
   3        2PX         0.00000   0.00000   0.38335
   4        2PY         0.00000   0.00000   0.00000   0.40385
   5        2PZ         0.00000   0.00000   0.00000   0.00000   0.40385
   6        3S         -0.03927   0.22933   0.00000   0.00000   0.00000
   7        3PX         0.00000   0.00000   0.09603   0.00000   0.00000
   8        3PY         0.00000   0.00000   0.00000   0.10498   0.00000
   9        3PZ         0.00000   0.00000   0.00000   0.00000   0.10498
  10 2   H  1S         -0.00172   0.02744   0.01198   0.08721   0.00000
  11        2S         -0.00021   0.01245   0.00722   0.05516   0.00000
  12 3   H  1S         -0.00172   0.02744   0.01198   0.02193   0.06529
  13        2S         -0.00021   0.01244   0.00722   0.01387   0.04129
  14 4   H  1S         -0.00172   0.02744   0.01198   0.02168   0.06553
  15        2S         -0.00021   0.01245   0.00722   0.01371   0.04145
  16 5   C  1S          0.00000  -0.00017  -0.00124   0.00000   0.00000
  17        2S         -0.00017   0.00456   0.02432   0.00000   0.00000
  18        2PX        -0.00124   0.02432   0.08090   0.00000   0.00000
  19        2PY         0.00000   0.00000   0.00000   0.00040   0.00000
  20        2PZ         0.00000   0.00000   0.00000   0.00000   0.00040
  21        3S          0.00063   0.00066   0.03120   0.00000   0.00000
  22        3PX        -0.00087   0.01754   0.03463   0.00000   0.00000
  23        3PY         0.00000   0.00000   0.00000  -0.00075   0.00000
  24        3PZ         0.00000   0.00000   0.00000   0.00000  -0.00075
  25 6   H  1S          0.00000  -0.00011  -0.00034  -0.00004  -0.00012
  26        2S          0.00012  -0.00184  -0.00480  -0.00057  -0.00168
  27 7   H  1S          0.00000  -0.00011  -0.00034  -0.00016   0.00000
  28        2S          0.00012  -0.00184  -0.00480  -0.00225   0.00000
  29 8   H  1S          0.00000  -0.00011  -0.00034  -0.00004  -0.00012
  30        2S          0.00012  -0.00184  -0.00480  -0.00056  -0.00169
                           6         7         8         9        10
   6        3S          0.28362
   7        3PX         0.00000   0.07624
   8        3PY         0.00000   0.00000   0.08418
   9        3PZ         0.00000   0.00000   0.00000   0.08418
  10 2   H  1S          0.03741   0.00723   0.05629   0.00000   0.22114
  11        2S          0.01757   0.00699   0.05575   0.00000   0.11286
  12 3   H  1S          0.03741   0.00723   0.01415   0.04214  -0.00050
  13        2S          0.01756   0.00699   0.01402   0.04174  -0.00701
  14 4   H  1S          0.03741   0.00723   0.01400   0.04230  -0.00050
  15        2S          0.01756   0.00699   0.01386   0.04189  -0.00701
  16 5   C  1S          0.00063  -0.00087   0.00000   0.00000   0.00000
  17        2S          0.00066   0.01754   0.00000   0.00000  -0.00011
  18        2PX         0.03120   0.03463   0.00000   0.00000  -0.00034
  19        2PY         0.00000   0.00000  -0.00075   0.00000  -0.00016
  20        2PZ         0.00000   0.00000   0.00000  -0.00075   0.00000
  21        3S         -0.01620   0.02296   0.00000   0.00000  -0.00214
  22        3PX         0.02296   0.01485   0.00000   0.00000  -0.00371
  23        3PY         0.00000   0.00000  -0.00241   0.00000  -0.00131
  24        3PZ         0.00000   0.00000   0.00000  -0.00241   0.00000
  25 6   H  1S         -0.00214  -0.00371  -0.00033  -0.00098  -0.00001
  26        2S         -0.00581  -0.00974  -0.00118  -0.00351  -0.00054
  27 7   H  1S         -0.00214  -0.00371  -0.00131   0.00000   0.00000
  28        2S         -0.00581  -0.00973  -0.00469   0.00000   0.00037
  29 8   H  1S         -0.00214  -0.00371  -0.00032  -0.00098  -0.00001
  30        2S         -0.00581  -0.00974  -0.00117  -0.00352  -0.00054
                          11        12        13        14        15
  11        2S          0.14600
  12 3   H  1S         -0.00701   0.22114
  13        2S         -0.01937   0.11286   0.14601
  14 4   H  1S         -0.00701  -0.00050  -0.00701   0.22114
  15        2S         -0.01937  -0.00701  -0.01937   0.11286   0.14601
  16 5   C  1S          0.00012   0.00000   0.00012   0.00000   0.00012
  17        2S         -0.00184  -0.00011  -0.00184  -0.00011  -0.00184
  18        2PX        -0.00480  -0.00034  -0.00480  -0.00034  -0.00480
  19        2PY        -0.00225  -0.00004  -0.00057  -0.00004  -0.00056
  20        2PZ         0.00000  -0.00012  -0.00168  -0.00012  -0.00169
  21        3S         -0.00581  -0.00214  -0.00581  -0.00214  -0.00581
  22        3PX        -0.00973  -0.00371  -0.00974  -0.00371  -0.00974
  23        3PY        -0.00469  -0.00033  -0.00118  -0.00033  -0.00117
  24        3PZ         0.00000  -0.00098  -0.00351  -0.00098  -0.00352
  25 6   H  1S         -0.00054   0.00000   0.00037  -0.00001  -0.00054
  26        2S         -0.00268   0.00037   0.00388  -0.00054  -0.00268
  27 7   H  1S          0.00037  -0.00001  -0.00054  -0.00001  -0.00054
  28        2S          0.00388  -0.00054  -0.00268  -0.00054  -0.00268
  29 8   H  1S         -0.00054  -0.00001  -0.00054   0.00000   0.00037
  30        2S         -0.00268  -0.00054  -0.00268   0.00037   0.00388
                          16        17        18        19        20
  16 5   C  1S          2.06022
  17        2S         -0.01712   0.29579
  18        2PX         0.00000   0.00000   0.38335
  19        2PY         0.00000   0.00000   0.00000   0.40385
  20        2PZ         0.00000   0.00000   0.00000   0.00000   0.40385
  21        3S         -0.03927   0.22933   0.00000   0.00000   0.00000
  22        3PX         0.00000   0.00000   0.09603   0.00000   0.00000
  23        3PY         0.00000   0.00000   0.00000   0.10498   0.00000
  24        3PZ         0.00000   0.00000   0.00000   0.00000   0.10498
  25 6   H  1S         -0.00172   0.02744   0.01198   0.02193   0.06529
  26        2S         -0.00021   0.01245   0.00722   0.01387   0.04129
  27 7   H  1S         -0.00172   0.02744   0.01198   0.08721   0.00000
  28        2S         -0.00021   0.01245   0.00722   0.05516   0.00000
  29 8   H  1S         -0.00172   0.02744   0.01198   0.02168   0.06553
  30        2S         -0.00021   0.01244   0.00722   0.01371   0.04145
                          21        22        23        24        25
  21        3S          0.28362
  22        3PX         0.00000   0.07624
  23        3PY         0.00000   0.00000   0.08418
  24        3PZ         0.00000   0.00000   0.00000   0.08418
  25 6   H  1S          0.03741   0.00723   0.01415   0.04214   0.22114
  26        2S          0.01756   0.00699   0.01402   0.04174   0.11286
  27 7   H  1S          0.03741   0.00723   0.05629   0.00000  -0.00050
  28        2S          0.01757   0.00699   0.05575   0.00000  -0.00701
  29 8   H  1S          0.03741   0.00723   0.01400   0.04230  -0.00050
  30        2S          0.01756   0.00699   0.01386   0.04189  -0.00701
                          26        27        28        29        30
  26        2S          0.14600
  27 7   H  1S         -0.00701   0.22114
  28        2S         -0.01937   0.11286   0.14600
  29 8   H  1S         -0.00701  -0.00050  -0.00701   0.22114
  30        2S         -0.01937  -0.00701  -0.01937   0.11286   0.14601
     Gross orbital populations:
                           1
   1 1   C  1S          1.99672
   2        2S          0.66870
   3        2PX         0.69138
   4        2PY         0.71844
   5        2PZ         0.71844
   6        3S          0.65398
   7        3PX         0.26369
   8        3PY         0.34508
   9        3PZ         0.34509
  10 2   H  1S          0.53632
  11        2S          0.32984
  12 3   H  1S          0.53632
  13        2S          0.32984
  14 4   H  1S          0.53632
  15        2S          0.32984
  16 5   C  1S          1.99672
  17        2S          0.66870
  18        2PX         0.69138
  19        2PY         0.71843
  20        2PZ         0.71844
  21        3S          0.65398
  22        3PX         0.26369
  23        3PY         0.34508
  24        3PZ         0.34509
  25 6   H  1S          0.53632
  26        2S          0.32984
  27 7   H  1S          0.53632
  28        2S          0.32984
  29 8   H  1S          0.53632
  30        2S          0.32984
          Condensed to atoms (all electrons):
              1          2          3          4          5          6
     1  C    5.033142   0.380755   0.380754   0.380755   0.336404  -0.036765
     2  H    0.380755   0.592855  -0.033901  -0.033900  -0.036758  -0.003759
     3  H    0.380754  -0.033901   0.592867  -0.033904  -0.036765   0.004627
     4  H    0.380755  -0.033900  -0.033904   0.592863  -0.036764  -0.003759
     5  C    0.336404  -0.036758  -0.036765  -0.036764   5.033140   0.380755
     6  H   -0.036765  -0.003759   0.004627  -0.003759   0.380755   0.592861
     7  H   -0.036758   0.004626  -0.003759  -0.003759   0.380755  -0.033900
     8  H   -0.036766  -0.003759  -0.003760   0.004627   0.380755  -0.033902
              7          8
     1  C   -0.036758  -0.036766
     2  H    0.004626  -0.003759
     3  H   -0.003759  -0.003760
     4  H   -0.003759   0.004627
     5  C    0.380755   0.380755
     6  H   -0.033900  -0.033902
     7  H    0.592858  -0.033902
     8  H   -0.033902   0.592865
 Mulliken atomic charges:
              1
     1  C   -0.401522
     2  H    0.133841
     3  H    0.133840
     4  H    0.133841
     5  C   -0.401522
     6  H    0.133842
     7  H    0.133840
     8  H    0.133841
 Sum of Mulliken atomic charges =   0.00000
 Mulliken charges with hydrogens summed into heavy atoms:
              1
     1  C    0.000000
     5  C    0.000000
 Sum of Mulliken charges with hydrogens summed into heavy atoms =   0.00000
 Electronic spatial extent (au):  <R**2>=            110.0640
 Charge=              0.0000 electrons
 Dipole moment (field-independent basis, Debye):
    X=              0.0000    Y=              0.0000    Z=              0.0000  Tot=              0.0000
 Quadrupole moment (field-independent basis, Debye-Ang):
   XX=            -15.1905   YY=            -14.8108   ZZ=            -14.8110
   XY=              0.0001   XZ=              0.0000   YZ=              0.0000
 Traceless Quadrupole moment (field-independent basis, Debye-Ang):
   XX=             -0.2531   YY=              0.1267   ZZ=              0.1264
   XY=              0.0001   XZ=              0.0000   YZ=              0.0000
 Octapole moment (field-independent basis, Debye-Ang**2):
  XXX=              0.0000  YYY=              0.0000  ZZZ=              0.0000  XYY=              0.0000
  XXY=              0.0000  XXZ=              0.0000  XZZ=              0.0000  YZZ=              0.0000
  YYZ=              0.0000  XYZ=              0.0001
 Hexadecapole moment (field-independent basis, Debye-Ang**3):
 XXXX=            -92.9539 YYYY=            -28.8664 ZZZZ=            -28.8661 XXXY=              0.0005
 XXXZ=              0.0000 YYYX=              1.1239 YYYZ=              0.0000 ZZZX=              0.0054
 ZZZY=              0.0000 XXYY=            -19.3241 XXZZ=            -19.3247 YYZZ=             -9.6220
 XXYZ=              0.0000 YYXZ=             -0.0054 ZZXY=             -1.1238
 N-N= 4.204759988176D+01 E-N=-2.681903784157D+02  KE= 7.929883609505D+01
 Orbital energies and kinetic energies (alpha):
                                 1                 2
   1         O               -10.166921         15.962710
   2         O               -10.166798         15.958557
   3         O                -0.749353          1.320585
   4         O                -0.615012          1.288972
   5         O                -0.431296          0.908567
   6         O                -0.431293          0.908567
   7         O                -0.364167          1.219051
   8         O                -0.340136          1.041201
   9         O                -0.340128          1.041208
  10         V                 0.103960          0.876428
  11         V                 0.154621          1.146243
  12         V                 0.163277          0.897755
  13         V                 0.163280          0.897761
  14         V                 0.189657          0.851626
  15         V                 0.189666          0.851648
  16         V                 0.239504          1.307465
  17         V                 0.540033          1.672574
  18         V                 0.561028          1.582340
  19         V                 0.561031          1.582347
  20         V                 0.648705          1.961003
  21         V                 0.648742          1.961096
  22         V                 0.673612          2.827138
  23         V                 0.916905          2.672603
  24         V                 0.927512          2.701612
  25         V                 0.927518          2.701627
  26         V                 0.972658          2.549334
  27         V                 0.972666          2.549300
  28         V                 0.978569          2.894499
  29         V                 1.089697          2.209914
  30         V                 1.444732          2.374766
 Total kinetic energy from orbitals= 7.929883609505D+01
 ******************************Gaussian NBO Version 3.1******************************
             N A T U R A L   A T O M I C   O R B I T A L   A N D
          N A T U R A L   B O N D   O R B I T A L   A N A L Y S I S
 ******************************Gaussian NBO Version 3.1******************************
       /RESON  / : Allow strongly delocalized NBO set

 Analyzing the SCF density

 Job title: C2H6_M                                                          

 Storage needed:      2930 in NPA,      3763 in NBO (1342176880 available)


 NATURAL POPULATIONS:  Natural atomic orbital occupancies 
                                                          
   NAO  Atom  No  lang   Type(AO)    Occupancy      Energy
 ----------------------------------------------------------
     1    C    1  S      Cor( 1S)     1.99934     -10.04129
     2    C    1  S      Val( 2S)     1.10653      -0.25065
     3    C    1  S      Ryd( 3S)     0.00039       1.22565
     4    C    1  px     Val( 2p)     1.09228      -0.06838
     5    C    1  px     Ryd( 3p)     0.00065       0.54755
     6    C    1  py     Val( 2p)     1.24903      -0.07515
     7    C    1  py     Ryd( 3p)     0.00107       0.62495
     8    C    1  pz     Val( 2p)     1.24903      -0.07515
     9    C    1  pz     Ryd( 3p)     0.00107       0.62492

    10    H    2  S      Val( 1S)     0.76557       0.09156
    11    H    2  S      Ryd( 2S)     0.00130       0.64800

    12    H    3  S      Val( 1S)     0.76558       0.09155
    13    H    3  S      Ryd( 2S)     0.00130       0.64801

    14    H    4  S      Val( 1S)     0.76558       0.09156
    15    H    4  S      Ryd( 2S)     0.00130       0.64801

    16    C    5  S      Cor( 1S)     1.99934     -10.04129
    17    C    5  S      Val( 2S)     1.10653      -0.25065
    18    C    5  S      Ryd( 3S)     0.00039       1.22565
    19    C    5  px     Val( 2p)     1.09228      -0.06838
    20    C    5  px     Ryd( 3p)     0.00065       0.54755
    21    C    5  py     Val( 2p)     1.24903      -0.07515
    22    C    5  py     Ryd( 3p)     0.00107       0.62494
    23    C    5  pz     Val( 2p)     1.24903      -0.07515
    24    C    5  pz     Ryd( 3p)     0.00107       0.62492

    25    H    6  S      Val( 1S)     0.76558       0.09156
    26    H    6  S      Ryd( 2S)     0.00130       0.64801

    27    H    7  S      Val( 1S)     0.76557       0.09155
    28    H    7  S      Ryd( 2S)     0.00130       0.64800

    29    H    8  S      Val( 1S)     0.76558       0.09155
    30    H    8  S      Ryd( 2S)     0.00130       0.64801


 Summary of Natural Population Analysis:                  
                                                          
                                       Natural Population 
                Natural  -----------------------------------------------
    Atom  No    Charge         Core      Valence    Rydberg      Total
 -----------------------------------------------------------------------
      C    1   -0.69938      1.99934     4.69687    0.00317     6.69938
      H    2    0.23313      0.00000     0.76557    0.00130     0.76687
      H    3    0.23313      0.00000     0.76558    0.00130     0.76687
      H    4    0.23313      0.00000     0.76558    0.00130     0.76687
      C    5   -0.69938      1.99934     4.69687    0.00317     6.69938
      H    6    0.23313      0.00000     0.76558    0.00130     0.76687
      H    7    0.23313      0.00000     0.76557    0.00130     0.76687
      H    8    0.23313      0.00000     0.76558    0.00130     0.76687
 =======================================================================
   * Total *    0.00000      3.99867    13.98719    0.01413    18.00000

                                 Natural Population      
 --------------------------------------------------------
   Core                       3.99867 ( 99.9668% of   4)
   Valence                   13.98719 ( 99.9085% of  14)
   Natural Minimal Basis     17.98587 ( 99.9215% of  18)
   Natural Rydberg Basis      0.01413 (  0.0785% of  18)
 --------------------------------------------------------

    Atom  No          Natural Electron Configuration
 ----------------------------------------------------------------------------
      C    1      [core]2S( 1.11)2p( 3.59)
      H    2            1S( 0.77)
      H    3            1S( 0.77)
      H    4            1S( 0.77)
      C    5      [core]2S( 1.11)2p( 3.59)
      H    6            1S( 0.77)
      H    7            1S( 0.77)
      H    8            1S( 0.77)


 NATURAL BOND ORBITAL ANALYSIS:

                       Occupancies       Lewis Structure    Low   High
           Occ.    -------------------  -----------------   occ   occ
  Cycle   Thresh.   Lewis   Non-Lewis     CR  BD  3C  LP    (L)   (NL)   Dev
 =============================================================================
   1(1)    1.90    17.94360   0.05640      2   7   0   0     0      0    0.04
 -----------------------------------------------------------------------------

 Structure accepted: No low occupancy Lewis orbitals

 --------------------------------------------------------
   Core                      3.99867 ( 99.967% of   4)
   Valence Lewis            13.94493 ( 99.607% of  14)
  ==================       ============================
   Total Lewis              17.94360 ( 99.687% of  18)
  -----------------------------------------------------
   Valence non-Lewis         0.04398 (  0.244% of  18)
   Rydberg non-Lewis         0.01242 (  0.069% of  18)
  ==================       ============================
   Total non-Lewis           0.05640 (  0.313% of  18)
 --------------------------------------------------------


       (Occupancy)   Bond orbital/ Coefficients/ Hybrids
 ---------------------------------------------------------------------------------
     1. (1.99136) BD ( 1) C   1 - H   2  
                ( 61.77%)   0.7860* C   1 s( 24.04%)p 3.16( 75.96%)
                                            0.0001  0.4903 -0.0041 -0.3048 -0.0092
                                           -0.8164  0.0076  0.0013  0.0000
                ( 38.23%)   0.6183* H   2 s(100.00%)
                                            1.0000  0.0006
     2. (1.99136) BD ( 1) C   1 - H   3  
                ( 61.77%)   0.7860* C   1 s( 24.04%)p 3.16( 75.96%)
                                            0.0001  0.4903 -0.0041 -0.3047 -0.0092
                                            0.4094 -0.0038  0.7064 -0.0066
                ( 38.23%)   0.6183* H   3 s(100.00%)
                                            1.0000  0.0006
     3. (1.99136) BD ( 1) C   1 - H   4  
                ( 61.77%)   0.7860* C   1 s( 24.04%)p 3.16( 75.96%)
                                            0.0001  0.4903 -0.0041 -0.3047 -0.0092
                                            0.4071 -0.0038 -0.7077  0.0066
                ( 38.23%)   0.6183* H   4 s(100.00%)
                                            1.0000  0.0006
     4. (1.99676) BD ( 1) C   1 - C   5  
                ( 50.00%)   0.7071* C   1 s( 27.90%)p 2.58( 72.10%)
                                           -0.0003 -0.5280 -0.0144 -0.8490 -0.0106
                                            0.0000  0.0000  0.0000  0.0000
                ( 50.00%)   0.7071* C   5 s( 27.90%)p 2.58( 72.10%)
                                           -0.0003 -0.5280 -0.0144  0.8490  0.0106
                                            0.0000  0.0000  0.0000  0.0000
     5. (1.99136) BD ( 1) C   5 - H   6  
                ( 61.77%)   0.7860* C   5 s( 24.04%)p 3.16( 75.96%)
                                            0.0001  0.4903 -0.0041  0.3047  0.0092
                                           -0.4094  0.0038 -0.7064  0.0066
                ( 38.23%)   0.6183* H   6 s(100.00%)
                                            1.0000  0.0006
     6. (1.99136) BD ( 1) C   5 - H   7  
                ( 61.77%)   0.7860* C   5 s( 24.04%)p 3.16( 75.96%)
                                            0.0001  0.4903 -0.0041  0.3047  0.0092
                                            0.8164 -0.0076 -0.0013  0.0000
                ( 38.23%)   0.6183* H   7 s(100.00%)
                                            1.0000  0.0006
     7. (1.99136) BD ( 1) C   5 - H   8  
                ( 61.77%)   0.7860* C   5 s( 24.04%)p 3.16( 75.96%)
                                            0.0001  0.4903 -0.0041  0.3047  0.0092
                                           -0.4071  0.0038  0.7077 -0.0066
                ( 38.23%)   0.6183* H   8 s(100.00%)
                                            1.0000  0.0006
     8. (1.99934) CR ( 1) C   1           s(100.00%)p 0.00(  0.00%)
                                            1.0000 -0.0002  0.0000 -0.0001  0.0000
                                            0.0000  0.0000  0.0000  0.0000
     9. (1.99934) CR ( 1) C   5           s(100.00%)p 0.00(  0.00%)
                                            1.0000 -0.0002  0.0000  0.0001  0.0000
                                            0.0000  0.0000  0.0000  0.0000
    10. (0.00100) RY*( 1) C   1           s(  0.00%)p 1.00(100.00%)
                                            0.0000  0.0000 -0.0001  0.0000 -0.0001
                                            0.0093  1.0000  0.0000  0.0000
    11. (0.00100) RY*( 2) C   1           s(  0.00%)p 1.00(100.00%)
                                            0.0000  0.0000  0.0000  0.0000  0.0000
                                            0.0000  0.0000  0.0093  1.0000
    12. (0.00023) RY*( 3) C   1           s(  7.61%)p12.13( 92.39%)
                                            0.0000  0.0073  0.2758 -0.0212  0.9609
                                            0.0000  0.0001  0.0000  0.0000
    13. (0.00009) RY*( 4) C   1           s( 92.37%)p 0.08(  7.63%)
    14. (0.00130) RY*( 1) H   2           s(100.00%)
                                           -0.0006  1.0000
    15. (0.00130) RY*( 1) H   3           s(100.00%)
                                           -0.0006  1.0000
    16. (0.00130) RY*( 1) H   4           s(100.00%)
                                           -0.0006  1.0000
    17. (0.00100) RY*( 1) C   5           s(  0.00%)p 1.00(100.00%)
                                            0.0000  0.0000  0.0001  0.0000 -0.0001
                                            0.0093  1.0000  0.0000  0.0000
    18. (0.00100) RY*( 2) C   5           s(  0.00%)p 1.00(100.00%)
                                            0.0000  0.0000  0.0000  0.0000  0.0000
                                            0.0000  0.0000  0.0093  1.0000
    19. (0.00023) RY*( 3) C   5           s(  7.61%)p12.13( 92.39%)
                                            0.0000  0.0073  0.2758  0.0212 -0.9609
                                            0.0000 -0.0001  0.0000  0.0000
    20. (0.00009) RY*( 4) C   5           s( 92.37%)p 0.08(  7.63%)
    21. (0.00130) RY*( 1) H   6           s(100.00%)
                                           -0.0006  1.0000
    22. (0.00130) RY*( 1) H   7           s(100.00%)
                                           -0.0006  1.0000
    23. (0.00130) RY*( 1) H   8           s(100.00%)
                                           -0.0006  1.0000
    24. (0.00701) BD*( 1) C   1 - H   2  
                ( 38.23%)   0.6183* C   1 s( 24.04%)p 3.16( 75.96%)
                                           -0.0001 -0.4903  0.0041  0.3048  0.0092
                                            0.8164 -0.0076 -0.0013  0.0000
                ( 61.77%)  -0.7860* H   2 s(100.00%)
                                           -1.0000 -0.0006
    25. (0.00701) BD*( 1) C   1 - H   3  
                ( 38.23%)   0.6183* C   1 s( 24.04%)p 3.16( 75.96%)
                                           -0.0001 -0.4903  0.0041  0.3047  0.0092
                                           -0.4094  0.0038 -0.7064  0.0066
                ( 61.77%)  -0.7860* H   3 s(100.00%)
                                           -1.0000 -0.0006
    26. (0.00701) BD*( 1) C   1 - H   4  
                ( 38.23%)   0.6183* C   1 s( 24.04%)p 3.16( 75.96%)
                                           -0.0001 -0.4903  0.0041  0.3047  0.0092
                                           -0.4071  0.0038  0.7077 -0.0066
                ( 61.77%)  -0.7860* H   4 s(100.00%)
                                           -1.0000 -0.0006
    27. (0.00195) BD*( 1) C   1 - C   5  
                ( 50.00%)   0.7071* C   1 s( 27.90%)p 2.58( 72.10%)
                                            0.0003  0.5280  0.0144  0.8490  0.0106
                                            0.0000  0.0000  0.0000  0.0000
                ( 50.00%)  -0.7071* C   5 s( 27.90%)p 2.58( 72.10%)
                                            0.0003  0.5280  0.0144 -0.8490 -0.0106
                                            0.0000  0.0000  0.0000  0.0000
    28. (0.00701) BD*( 1) C   5 - H   6  
                ( 38.23%)   0.6183* C   5 s( 24.04%)p 3.16( 75.96%)
                                           -0.0001 -0.4903  0.0041 -0.3047 -0.0092
                                            0.4094 -0.0038  0.7064 -0.0066
                ( 61.77%)  -0.7860* H   6 s(100.00%)
                                           -1.0000 -0.0006
    29. (0.00701) BD*( 1) C   5 - H   7  
                ( 38.23%)   0.6183* C   5 s( 24.04%)p 3.16( 75.96%)
                                           -0.0001 -0.4903  0.0041 -0.3047 -0.0092
                                           -0.8164  0.0076  0.0013  0.0000
                ( 61.77%)  -0.7860* H   7 s(100.00%)
                                           -1.0000 -0.0006
    30. (0.00701) BD*( 1) C   5 - H   8  
                ( 38.23%)   0.6183* C   5 s( 24.04%)p 3.16( 75.96%)
                                           -0.0001 -0.4903  0.0041 -0.3047 -0.0092
                                            0.4071 -0.0038 -0.7077  0.0066
                ( 61.77%)  -0.7860* H   8 s(100.00%)
                                           -1.0000 -0.0006


 NHO Directionality and "Bond Bending" (deviations from line of nuclear centers)

         [Thresholds for printing:  angular deviation  >  1.0 degree]
                                    hybrid p-character > 25.0%
                                    orbital occupancy  >  0.10e

                                Line of Centers        Hybrid 1              Hybrid 2
                                ---------------  -------------------   ------------------
                NBO               Theta   Phi    Theta   Phi    Dev    Theta   Phi    Dev
 ========================================================================================
    None exceeding thresholds


 Second Order Perturbation Theory Analysis of Fock Matrix in NBO Basis

     Threshold for printing:   0.50 kcal/mol
                                                                              E(2)  E(j)-E(i) F(i,j)
         Donor NBO (i)                     Acceptor NBO (j)                 kcal/mol   a.u.    a.u. 
 ===================================================================================================

 within unit  1
   1. BD (   1) C   1 - H   2        / 17. RY*(   1) C   5                    0.59    1.11    0.023
   1. BD (   1) C   1 - H   2        / 29. BD*(   1) C   5 - H   7            2.68    0.94    0.045
   2. BD (   1) C   1 - H   3        / 28. BD*(   1) C   5 - H   6            2.68    0.94    0.045
   3. BD (   1) C   1 - H   4        / 30. BD*(   1) C   5 - H   8            2.68    0.94    0.045
   4. BD (   1) C   1 - C   5        / 24. BD*(   1) C   1 - H   2            0.56    1.04    0.022
   4. BD (   1) C   1 - C   5        / 25. BD*(   1) C   1 - H   3            0.56    1.04    0.022
   4. BD (   1) C   1 - C   5        / 26. BD*(   1) C   1 - H   4            0.56    1.04    0.022
   4. BD (   1) C   1 - C   5        / 28. BD*(   1) C   5 - H   6            0.56    1.04    0.022
   4. BD (   1) C   1 - C   5        / 29. BD*(   1) C   5 - H   7            0.56    1.04    0.022
   4. BD (   1) C   1 - C   5        / 30. BD*(   1) C   5 - H   8            0.56    1.04    0.022
   5. BD (   1) C   5 - H   6        / 25. BD*(   1) C   1 - H   3            2.68    0.94    0.045
   6. BD (   1) C   5 - H   7        / 10. RY*(   1) C   1                    0.59    1.11    0.023
   6. BD (   1) C   5 - H   7        / 24. BD*(   1) C   1 - H   2            2.68    0.94    0.045
   7. BD (   1) C   5 - H   8        / 26. BD*(   1) C   1 - H   4            2.68    0.94    0.045
   8. CR (   1) C   1                / 14. RY*(   1) H   2                    0.58   10.69    0.070
   8. CR (   1) C   1                / 15. RY*(   1) H   3                    0.58   10.69    0.070
   8. CR (   1) C   1                / 16. RY*(   1) H   4                    0.58   10.69    0.070
   8. CR (   1) C   1                / 19. RY*(   3) C   5                    1.49   10.64    0.112
   9. CR (   1) C   5                / 12. RY*(   3) C   1                    1.49   10.64    0.112
   9. CR (   1) C   5                / 21. RY*(   1) H   6                    0.58   10.69    0.070
   9. CR (   1) C   5                / 22. RY*(   1) H   7                    0.58   10.69    0.070
   9. CR (   1) C   5                / 23. RY*(   1) H   8                    0.58   10.69    0.070


 Natural Bond Orbitals (Summary):

                                                            Principal Delocalizations
           NBO                        Occupancy    Energy   (geminal,vicinal,remote)
 ====================================================================================
 Molecular unit  1  (C2H6)
     1. BD (   1) C   1 - H   2          1.99136    -0.48538  29(v),17(v)
     2. BD (   1) C   1 - H   3          1.99136    -0.48537  28(v)
     3. BD (   1) C   1 - H   4          1.99136    -0.48538  30(v)
     4. BD (   1) C   1 - C   5          1.99676    -0.58048  24(g),25(g),26(g),28(g)
                                                    30(g),29(g)
     5. BD (   1) C   5 - H   6          1.99136    -0.48538  25(v)
     6. BD (   1) C   5 - H   7          1.99136    -0.48538  24(v),10(v)
     7. BD (   1) C   5 - H   8          1.99136    -0.48538  26(v)
     8. CR (   1) C   1                  1.99934   -10.04091  19(v),14(v),15(v),16(v)
     9. CR (   1) C   5                  1.99934   -10.04091  12(v),21(v),22(v),23(v)
    10. RY*(   1) C   1                  0.00100     0.62578   
    11. RY*(   2) C   1                  0.00100     0.62575   
    12. RY*(   3) C   1                  0.00023     0.59599   
    13. RY*(   4) C   1                  0.00009     1.17224   
    14. RY*(   1) H   2                  0.00130     0.64766   
    15. RY*(   1) H   3                  0.00130     0.64767   
    16. RY*(   1) H   4                  0.00130     0.64766   
    17. RY*(   1) C   5                  0.00100     0.62578   
    18. RY*(   2) C   5                  0.00100     0.62576   
    19. RY*(   3) C   5                  0.00023     0.59599   
    20. RY*(   4) C   5                  0.00009     1.17225   
    21. RY*(   1) H   6                  0.00130     0.64766   
    22. RY*(   1) H   7                  0.00130     0.64766   
    23. RY*(   1) H   8                  0.00130     0.64767   
    24. BD*(   1) C   1 - H   2          0.00701     0.45456   
    25. BD*(   1) C   1 - H   3          0.00701     0.45456   
    26. BD*(   1) C   1 - H   4          0.00701     0.45456   
    27. BD*(   1) C   1 - C   5          0.00195     0.38397   
    28. BD*(   1) C   5 - H   6          0.00701     0.45456   
    29. BD*(   1) C   5 - H   7          0.00701     0.45455   
    30. BD*(   1) C   5 - H   8          0.00701     0.45456   
       -------------------------------
              Total Lewis   17.94360  ( 99.6867%)
        Valence non-Lewis    0.04398  (  0.2444%)
        Rydberg non-Lewis    0.01242  (  0.0690%)
       -------------------------------
            Total unit  1   18.00000  (100.0000%)
           Charge unit  1    0.00000
 1\1\GINC-COMPUTE-0-2\SP\RB3LYP\6-31G\C2H6\VIJI\05-Jun-2025\0\\# b3lyp/
 6-31g pop=(full,nbo) geom=connectivity scf=xqc gfinput\\C2H6_M\\0,1\C,
 0,-0.767367,-0.000005,-0.000003\H,0,-1.166625,-1.021405,-0.000351\H,0,
 -1.166543,0.510431,0.884747\H,0,-1.166557,0.511063,-0.884379\C,0,0.767
 368,0.000001,-0.000003\H,0,1.166555,-0.510441,-0.88474\H,0,1.166622,1.
 021409,0.000357\H,0,1.166541,-0.511035,0.8844\\Version=AM64L-G09RevB.0
 1\State=1-A\HF=-79.8127355\RMSD=1.177e-09\Dipole=-0.0000012,0.0000015,
 0.0000054\Quadrupole=-0.1881832,0.0941756,0.0940077,0.000055,-0.000000
 4,0.0000001\PG=C01 [X(C2H6)]\\@


 TRUTH, IN SCIENCE, CAN BE DEFINED AS THE WORKING HYPOTHESIS 
 BEST FITTED TO OPEN THE WAY TO THE NEXT BETTER ONE.

                              -- KONRAD LORENZ
 Job cpu time:  0 days  0 hours  0 minutes 17.6 seconds.
 File lengths (MBytes):  RWF=      5 Int=      0 D2E=      0 Chk=      1 Scr=      1
 Normal termination of Gaussian 09 at Thu Jun  5 17:40:49 2025.
