 Entering Gaussian System, Link 0=g09
 Input=CO2_d.gjf
 Output=CO2_d.log
 Initial command:
 /share/apps/g09/l1.exe /scratch/Gau-9859.inp -scrdir=/scratch/
 Entering Link 1 = /share/apps/g09/l1.exe PID=      9860.
  
 Copyright (c) 1988,1990,1992,1993,1995,1998,2003,2009,2010,
            Gaussian, Inc.  All Rights Reserved.
  
 This is part of the Gaussian(R) 09 program.  It is based on
 the Gaussian(R) 03 system (copyright 2003, Gaussian, Inc.),
 the Gaussian(R) 98 system (copyright 1998, Gaussian, Inc.),
 the Gaussian(R) 94 system (copyright 1995, Gaussian, Inc.),
 the Gaussian 92(TM) system (copyright 1992, Gaussian, Inc.),
 the Gaussian 90(TM) system (copyright 1990, Gaussian, Inc.),
 the Gaussian 88(TM) system (copyright 1988, Gaussian, Inc.),
 the Gaussian 86(TM) system (copyright 1986, Carnegie Mellon
 University), and the Gaussian 82(TM) system (copyright 1983,
 Carnegie Mellon University). Gaussian is a federally registered
 trademark of Gaussian, Inc.
  
 This software contains proprietary and confidential information,
 including trade secrets, belonging to Gaussian, Inc.
  
 This software is provided under written license and may be
 used, copied, transmitted, or stored only in accord with that
 written license.
  
 The following legend is applicable only to US Government
 contracts under FAR:
  
                    RESTRICTED RIGHTS LEGEND
  
 Use, reproduction and disclosure by the US Government is
 subject to restrictions as set forth in subparagraphs (a)
 and (c) of the Commercial Computer Software - Restricted
 Rights clause in FAR 52.227-19.
  
 Gaussian, Inc.
 340 Quinnipiac St., Bldg. 40, Wallingford CT 06492
  
  
 ---------------------------------------------------------------
 Warning -- This program may not be used in any manner that
 competes with the business of Gaussian, Inc. or will provide
 assistance to any competitor of Gaussian, Inc.  The licensee
 of this program is prohibited from giving any competitor of
 Gaussian, Inc. access to this program.  By using this program,
 the user acknowledges that Gaussian, Inc. is engaged in the
 business of creating and licensing software in the field of
 computational chemistry and represents and warrants to the
 licensee that it is not a competitor of Gaussian, Inc. and that
 it will not use this program in any manner prohibited above.
 ---------------------------------------------------------------
  

 Cite this work as:
 Gaussian 09, Revision B.01,
 M. J. Frisch, G. W. Trucks, H. B. Schlegel, G. E. Scuseria, 
 M. A. Robb, J. R. Cheeseman, G. Scalmani, V. Barone, B. Mennucci, 
 G. A. Petersson, H. Nakatsuji, M. Caricato, X. Li, H. P. Hratchian, 
 A. F. Izmaylov, J. Bloino, G. Zheng, J. L. Sonnenberg, M. Hada, 
 M. Ehara, K. Toyota, R. Fukuda, J. Hasegawa, M. Ishida, T. Nakajima, 
 Y. Honda, O. Kitao, H. Nakai, T. Vreven, J. A. Montgomery, Jr., 
 J. E. Peralta, F. Ogliaro, M. Bearpark, J. J. Heyd, E. Brothers, 
 K. N. Kudin, V. N. Staroverov, T. Keith, R. Kobayashi, J. Normand, 
 K. Raghavachari, A. Rendell, J. C. Burant, S. S. Iyengar, J. Tomasi, 
 M. Cossi, N. Rega, J. M. Millam, M. Klene, J. E. Knox, J. B. Cross, 
 V. Bakken, C. Adamo, J. Jaramillo, R. Gomperts, R. E. Stratmann, 
 O. Yazyev, A. J. Austin, R. Cammi, C. Pomelli, J. W. Ochterski, 
 R. L. Martin, K. Morokuma, V. G. Zakrzewski, G. A. Voth, 
 P. Salvador, J. J. Dannenberg, S. Dapprich, A. D. Daniels, 
 O. Farkas, J. B. Foresman, J. V. Ortiz, J. Cioslowski, 
 and D. J. Fox, Gaussian, Inc., Wallingford CT, 2010.
 
 ******************************************
 Gaussian 09:  AM64L-G09RevB.01 12-Aug-2010
                 5-Jun-2025 
 ******************************************
 %chk=CO2_d.chk
 %nprocshared=8
 Will use up to    8 processors via shared memory.
 %mem=10GB
 --------------------------------------------------------------
 # b3lyp/6-31g pop=(full,nbo) geom=connectivity scf=xqc gfinput
 --------------------------------------------------------------
 1/38=1,57=2/1;
 2/12=2,17=6,18=5,40=1/2;
 3/5=1,6=6,11=2,16=1,24=10,25=1,30=1,74=-5/1,2,3;
 4//1;
 5/5=2,8=3,13=1,38=5/2,8;
 6/7=3,28=1/1,7;
 99/5=1,9=1/99;
 -----
 CO2_M
 -----
 Symbolic Z-matrix:
 Charge =  0 Multiplicity = 1
 C                     0.        0.       0. 
 O                     0.        0.        1.18792 
 O                     0.        0.       -1.18791 
 
                          Input orientation:                          
 ---------------------------------------------------------------------
 Center     Atomic      Atomic             Coordinates (Angstroms)
 Number     Number       Type             X           Y           Z
 ---------------------------------------------------------------------
      1          6           0        0.000000    0.000000   -0.000001
      2          8           0        0.000000    0.000000    1.187915
      3          8           0        0.000000    0.000000   -1.187914
 ---------------------------------------------------------------------
                    Distance matrix (angstroms):
                    1          2          3
     1  C    0.000000
     2  O    1.187916   0.000000
     3  O    1.187913   2.375829   0.000000
 Stoichiometry    CO2
 Framework group  C*V[C*(OCO)]
 Deg. of freedom     2
 Full point group                 C*V     NOp   4
 Largest Abelian subgroup         C2V     NOp   4
 Largest concise Abelian subgroup C1      NOp   1
                         Standard orientation:                         
 ---------------------------------------------------------------------
 Center     Atomic      Atomic             Coordinates (Angstroms)
 Number     Number       Type             X           Y           Z
 ---------------------------------------------------------------------
      1          6           0        0.000000    0.000000   -0.000001
      2          8           0        0.000000    0.000000    1.187915
      3          8           0        0.000000    0.000000   -1.187914
 ---------------------------------------------------------------------
 Rotational constants (GHZ):      0.0000000     11.1952786     11.1952786
 Standard basis: 6-31G (6D, 7F)
 AO basis set in the form of general basis input (Overlap normalization):
      1 0
 S   6 1.00       0.000000000000
      0.3047524880D+04  0.1834737132D-02
      0.4573695180D+03  0.1403732281D-01
      0.1039486850D+03  0.6884262226D-01
      0.2921015530D+02  0.2321844432D+00
      0.9286662960D+01  0.4679413484D+00
      0.3163926960D+01  0.3623119853D+00
 SP   3 1.00       0.000000000000
      0.7868272350D+01 -0.1193324198D+00  0.6899906659D-01
      0.1881288540D+01 -0.1608541517D+00  0.3164239610D+00
      0.5442492580D+00  0.1143456438D+01  0.7443082909D+00
 SP   1 1.00       0.000000000000
      0.1687144782D+00  0.1000000000D+01  0.1000000000D+01
 ****
      2 0
 S   6 1.00       0.000000000000
      0.5484671660D+04  0.1831074430D-02
      0.8252349460D+03  0.1395017220D-01
      0.1880469580D+03  0.6844507810D-01
      0.5296450000D+02  0.2327143360D+00
      0.1689757040D+02  0.4701928980D+00
      0.5799635340D+01  0.3585208530D+00
 SP   3 1.00       0.000000000000
      0.1553961625D+02 -0.1107775495D+00  0.7087426823D-01
      0.3599933586D+01 -0.1480262627D+00  0.3397528391D+00
      0.1013761750D+01  0.1130767015D+01  0.7271585773D+00
 SP   1 1.00       0.000000000000
      0.2700058226D+00  0.1000000000D+01  0.1000000000D+01
 ****
      3 0
 S   6 1.00       0.000000000000
      0.5484671660D+04  0.1831074430D-02
      0.8252349460D+03  0.1395017220D-01
      0.1880469580D+03  0.6844507810D-01
      0.5296450000D+02  0.2327143360D+00
      0.1689757040D+02  0.4701928980D+00
      0.5799635340D+01  0.3585208530D+00
 SP   3 1.00       0.000000000000
      0.1553961625D+02 -0.1107775495D+00  0.7087426823D-01
      0.3599933586D+01 -0.1480262627D+00  0.3397528391D+00
      0.1013761750D+01  0.1130767015D+01  0.7271585773D+00
 SP   1 1.00       0.000000000000
      0.2700058226D+00  0.1000000000D+01  0.1000000000D+01
 ****

 There are    15 symmetry adapted basis functions of A1  symmetry.
 There are     0 symmetry adapted basis functions of A2  symmetry.
 There are     6 symmetry adapted basis functions of B1  symmetry.
 There are     6 symmetry adapted basis functions of B2  symmetry.
 Integral buffers will be    131072 words long.
 Raffenetti 2 integral format.
 Two-electron integral symmetry is turned on.
    27 basis functions,    66 primitive gaussians,    27 cartesian basis functions
    11 alpha electrons       11 beta electrons
       nuclear repulsion energy        57.0198298780 Hartrees.
 NAtoms=    3 NActive=    3 NUniq=    3 SFac= 1.00D+00 NAtFMM=   50 NAOKFM=F Big=F
 One-electron integrals computed using PRISM.
 NBasis=    27 RedAO= T  NBF=    15     0     6     6
 NBsUse=    27 1.00D-06 NBFU=    15     0     6     6
 Harris functional with IExCor=  402 diagonalized for initial guess.
 ExpMin= 1.69D-01 ExpMax= 5.48D+03 ExpMxC= 8.25D+02 IAcc=1 IRadAn=         1 AccDes= 0.00D+00
 HarFok:  IExCor=  402 AccDes= 0.00D+00 IRadAn=         1 IDoV= 1
 ScaDFX=  1.000000  1.000000  1.000000  1.000000
 FoFCou: FMM=F IPFlag=           0 FMFlag=      100000 FMFlg1=           0
         NFxFlg=           0 DoJE=T BraDBF=F KetDBF=T FulRan=T
         Omega=  0.000000  0.000000  1.000000  0.000000  0.000000 ICntrl=     500 IOpCl=  0
         NMat0=    1 NMatS0=    1 NMatT0=    0 NMatD0=    1 NMtDS0=    0 NMtDT0=    0
         I1Cent=           4 NGrid=           0.
 Petite list used in FoFCou.
 Initial guess orbital symmetries:
       Occupied  (SG) (SG) (SG) (SG) (SG) (SG) (SG) (PI) (PI) (PI)
                 (PI)
       Virtual   (PI) (PI) (SG) (SG) (PI) (PI) (SG) (SG) (SG) (PI)
                 (PI) (SG) (PI) (PI) (SG) (SG)
 The electronic state of the initial guess is 1-SG.
 Requested convergence on RMS density matrix=1.00D-08 within  64 cycles.
 Requested convergence on MAX density matrix=1.00D-06.
 Requested convergence on             energy=1.00D-06.
 No special actions if energy rises.
 Keep R1 ints in memory in canonical form, NReq=962330.
 Integral accuracy reduced to 1.0D-05 until final iterations.
 Initial convergence to 1.0D-05 achieved.  Increase integral accuracy.
 SCF Done:  E(RB3LYP) =  -188.500269670     A.U. after   11 cycles
             Convg  =    0.8505D-09             -V/T =  2.0061
 QCSCF skips out because SCF is already converged.

 **********************************************************************

            Population analysis using the SCF density.

 **********************************************************************

 Orbital symmetries:
       Occupied  (SG) (SG) (SG) (SG) (SG) (SG) (PI) (PI) (SG) (PI)
                 (PI)
       Virtual   (PI) (PI) (SG) (SG) (PI) (PI) (SG) (SG) (SG) (PI)
                 (PI) (SG) (PI) (PI) (SG) (SG)
 The electronic state is 1-SG.
 Alpha  occ. eigenvalues --  -19.25218 -19.25207 -10.40492  -1.18393  -1.14826
 Alpha  occ. eigenvalues --   -0.56333  -0.52569  -0.52569  -0.51565  -0.37293
 Alpha  occ. eigenvalues --   -0.37293
 Alpha virt. eigenvalues --   -0.00351  -0.00351   0.05629   0.37143   0.46625
 Alpha virt. eigenvalues --    0.46625   0.60864   0.72385   0.86707   0.87366
 Alpha virt. eigenvalues --    0.87366   1.00060   1.04032   1.04032   1.64009
 Alpha virt. eigenvalues --    1.96542
     Molecular Orbital Coefficients:
                           1         2         3         4         5
                           O         O         O         O         O
     Eigenvalues --   -19.25218 -19.25207 -10.40492  -1.18393  -1.14826
   1 1   C  1S          0.00000   0.00042   0.99491  -0.15086  -0.00001
   2        2S          0.00000   0.00058   0.03292   0.30850   0.00001
   3        2PX         0.00000   0.00000   0.00000   0.00000   0.00000
   4        2PY         0.00000   0.00000   0.00000   0.00000   0.00000
   5        2PZ        -0.00022   0.00000   0.00000  -0.00001   0.35073
   6        3S          0.00004   0.01223  -0.00817  -0.00092   0.00000
   7        3PX         0.00000   0.00000   0.00000   0.00000   0.00000
   8        3PY         0.00000   0.00000   0.00000   0.00000   0.00000
   9        3PZ        -0.01868   0.00006   0.00000   0.00000  -0.01539
  10 2   O  1S         -0.70162   0.70577  -0.00023  -0.13290  -0.14424
  11        2S         -0.02208   0.02066  -0.00017   0.29778   0.32657
  12        2PX         0.00000   0.00000   0.00000   0.00000   0.00000
  13        2PY         0.00000   0.00000   0.00000   0.00000   0.00000
  14        2PZ         0.00190  -0.00189   0.00030  -0.14525  -0.14312
  15        3S          0.02242  -0.01285  -0.00087   0.27333   0.25167
  16        3PX         0.00000   0.00000   0.00000   0.00000   0.00000
  17        3PY         0.00000   0.00000   0.00000   0.00000   0.00000
  18        3PZ        -0.00575   0.00462   0.00238  -0.05980  -0.02095
  19 3   O  1S          0.70583   0.70156  -0.00023  -0.13291   0.14423
  20        2S          0.02220   0.02053  -0.00017   0.29780  -0.32655
  21        2PX         0.00000   0.00000   0.00000   0.00000   0.00000
  22        2PY         0.00000   0.00000   0.00000   0.00000   0.00000
  23        2PZ         0.00191   0.00188  -0.00030   0.14526  -0.14311
  24        3S         -0.02249  -0.01272  -0.00087   0.27335  -0.25165
  25        3PX         0.00000   0.00000   0.00000   0.00000   0.00000
  26        3PY         0.00000   0.00000   0.00000   0.00000   0.00000
  27        3PZ        -0.00578  -0.00458  -0.00238   0.05980  -0.02095
                           6         7         8         9        10
                           O         O         O         O         O
     Eigenvalues --    -0.56333  -0.52569  -0.52569  -0.51565  -0.37293
   1 1   C  1S          0.12973   0.00000   0.00000   0.00000   0.00000
   2        2S         -0.34829   0.00000   0.00000   0.00000   0.00000
   3        2PX         0.00000   0.42457   0.00000   0.00000   0.00000
   4        2PY         0.00000   0.00000   0.42457   0.00000   0.00000
   5        2PZ         0.00000   0.00000   0.00000  -0.37934   0.00000
   6        3S         -0.22426   0.00000   0.00000   0.00000   0.00000
   7        3PX         0.00000   0.18271   0.00000   0.00000   0.00000
   8        3PY         0.00000   0.00000   0.18271   0.00000   0.00000
   9        3PZ         0.00000   0.00000   0.00000   0.02277   0.00000
  10 2   O  1S         -0.09813   0.00000   0.00000  -0.07491   0.00000
  11        2S          0.22191   0.00000   0.00000   0.16836   0.00000
  12        2PX         0.00000   0.34922   0.00000   0.00000   0.47827
  13        2PY         0.00000   0.00000   0.34922   0.00000   0.00000
  14        2PZ         0.31163   0.00000   0.00000   0.38457   0.00000
  15        3S          0.36040   0.00000   0.00000   0.27987   0.00000
  16        3PX         0.00000   0.17826   0.00000   0.00000   0.34200
  17        3PY         0.00000   0.00000   0.17826   0.00000   0.00000
  18        3PZ         0.13693   0.00000   0.00000   0.16974   0.00000
  19 3   O  1S         -0.09813   0.00000   0.00000   0.07491   0.00000
  20        2S          0.22191   0.00000   0.00000  -0.16836   0.00000
  21        2PX         0.00000   0.34922   0.00000   0.00000  -0.47827
  22        2PY         0.00000   0.00000   0.34922   0.00000   0.00000
  23        2PZ        -0.31163   0.00000   0.00000   0.38457   0.00000
  24        3S          0.36041   0.00000   0.00000  -0.27987   0.00000
  25        3PX         0.00000   0.17827   0.00000   0.00000  -0.34200
  26        3PY         0.00000   0.00000   0.17827   0.00000   0.00000
  27        3PZ        -0.13693   0.00000   0.00000   0.16974   0.00000
                          11        12        13        14        15
                           O         V         V         V         V
     Eigenvalues --    -0.37293  -0.00351  -0.00351   0.05629   0.37143
   1 1   C  1S          0.00000   0.00000   0.00000  -0.11263   0.00000
   2        2S          0.00000   0.00000   0.00000   0.05724   0.00000
   3        2PX         0.00000   0.61118   0.00000   0.00000   0.00000
   4        2PY         0.00000   0.00000   0.61118   0.00000   0.00000
   5        2PZ         0.00000   0.00000   0.00000   0.00000   0.03734
   6        3S          0.00000   0.00000   0.00000   2.11871  -0.00001
   7        3PX         0.00000   0.56071   0.00000   0.00000   0.00000
   8        3PY         0.00000   0.00000   0.56071   0.00000   0.00000
   9        3PZ         0.00000   0.00000   0.00000   0.00000   3.82638
  10 2   O  1S          0.00000   0.00000   0.00000   0.07116   0.08597
  11        2S          0.00000   0.00000   0.00000  -0.18398  -0.10431
  12        2PX         0.00000  -0.38232   0.00000   0.00000   0.00000
  13        2PY         0.47827   0.00000  -0.38232   0.00000   0.00000
  14        2PZ         0.00000   0.00000   0.00000   0.33914  -0.07343
  15        3S          0.00000   0.00000   0.00000  -0.79080  -2.53549
  16        3PX         0.00000  -0.37934   0.00000   0.00000   0.00000
  17        3PY         0.34200   0.00000  -0.37934   0.00000   0.00000
  18        3PZ         0.00000   0.00000   0.00000   0.53524   0.79999
  19 3   O  1S          0.00000   0.00000   0.00000   0.07116  -0.08597
  20        2S          0.00000   0.00000   0.00000  -0.18398   0.10431
  21        2PX         0.00000  -0.38232   0.00000   0.00000   0.00000
  22        2PY        -0.47827   0.00000  -0.38232   0.00000   0.00000
  23        2PZ         0.00000   0.00000   0.00000  -0.33914  -0.07343
  24        3S          0.00000   0.00000   0.00000  -0.79081   2.53550
  25        3PX         0.00000  -0.37935   0.00000   0.00000   0.00000
  26        3PY        -0.34200   0.00000  -0.37935   0.00000   0.00000
  27        3PZ         0.00000   0.00000   0.00000  -0.53524   0.79999
                          16        17        18        19        20
                           V         V         V         V         V
     Eigenvalues --     0.46625   0.46625   0.60864   0.72385   0.86707
   1 1   C  1S          0.00000   0.00000   0.10074   0.00000   0.05817
   2        2S          0.00000   0.00000  -1.70053  -0.00003   0.76737
   3        2PX        -0.95974   0.00000   0.00000   0.00000   0.00000
   4        2PY         0.00000  -0.95974   0.00000   0.00000   0.00000
   5        2PZ         0.00000   0.00000  -0.00002   1.31239   0.00001
   6        3S          0.00000   0.00000   1.72652   0.00001   0.52590
   7        3PX         1.30159   0.00000   0.00000   0.00000   0.00000
   8        3PY         0.00000   1.30159   0.00000   0.00000   0.00000
   9        3PZ         0.00000   0.00000   0.00001  -0.10562   0.00000
  10 2   O  1S          0.00000   0.00000  -0.01298   0.06138   0.04967
  11        2S          0.00000   0.00000   0.03793  -0.20613  -0.28114
  12        2PX        -0.11971   0.00000   0.00000   0.00000   0.00000
  13        2PY         0.00000  -0.11971   0.00000   0.00000   0.00000
  14        2PZ         0.00000   0.00000  -0.36476   0.09355  -0.54617
  15        3S          0.00000   0.00000  -0.27767  -0.39676  -0.13359
  16        3PX        -0.13500   0.00000   0.00000   0.00000   0.00000
  17        3PY         0.00000  -0.13500   0.00000   0.00000   0.00000
  18        3PZ         0.00000   0.00000   0.03592   0.88038   1.05262
  19 3   O  1S          0.00000   0.00000  -0.01297  -0.06138   0.04967
  20        2S          0.00000   0.00000   0.03793   0.20613  -0.28113
  21        2PX        -0.11971   0.00000   0.00000   0.00000   0.00000
  22        2PY         0.00000  -0.11971   0.00000   0.00000   0.00000
  23        2PZ         0.00000   0.00000   0.36475   0.09356   0.54617
  24        3S          0.00000   0.00000  -0.27767   0.39677  -0.13359
  25        3PX        -0.13500   0.00000   0.00000   0.00000   0.00000
  26        3PY         0.00000  -0.13500   0.00000   0.00000   0.00000
  27        3PZ         0.00000   0.00000  -0.03593   0.88039  -1.05262
                          21        22        23        24        25
                           V         V         V         V         V
     Eigenvalues --     0.87366   0.87366   1.00060   1.04032   1.04032
   1 1   C  1S          0.00000   0.00000   0.00000   0.00000   0.00000
   2        2S          0.00000   0.00000  -0.00001   0.00000   0.00000
   3        2PX         0.00000   0.00000   0.00000   0.11485   0.00000
   4        2PY         0.00000   0.00000   0.00000   0.00000   0.11485
   5        2PZ         0.00000   0.00000   0.45087   0.00000   0.00000
   6        3S          0.00000   0.00000   0.00000   0.00000   0.00000
   7        3PX         0.00000   0.00000   0.00000  -1.03859   0.00000
   8        3PY         0.00000   0.00000   0.00000   0.00000  -1.03859
   9        3PZ         0.00000   0.00000   0.29156   0.00000   0.00000
  10 2   O  1S          0.00000   0.00000   0.01671   0.00000   0.00000
  11        2S          0.00000   0.00000  -0.10589   0.00000   0.00000
  12        2PX         0.67024   0.00000   0.00000  -0.65189   0.00000
  13        2PY         0.00000   0.67024   0.00000   0.00000  -0.65189
  14        2PZ         0.00000   0.00000   0.75175   0.00000   0.00000
  15        3S          0.00000   0.00000  -0.22006   0.00000   0.00000
  16        3PX        -0.78020   0.00000   0.00000   1.13591   0.00000
  17        3PY         0.00000  -0.78020   0.00000   0.00000   1.13591
  18        3PZ         0.00000   0.00000  -0.64299   0.00000   0.00000
  19 3   O  1S          0.00000   0.00000  -0.01671   0.00000   0.00000
  20        2S          0.00000   0.00000   0.10590   0.00000   0.00000
  21        2PX        -0.67024   0.00000   0.00000  -0.65189   0.00000
  22        2PY         0.00000  -0.67024   0.00000   0.00000  -0.65189
  23        2PZ         0.00000   0.00000   0.75175   0.00000   0.00000
  24        3S          0.00000   0.00000   0.22006   0.00000   0.00000
  25        3PX         0.78021   0.00000   0.00000   1.13591   0.00000
  26        3PY         0.00000   0.78021   0.00000   0.00000   1.13591
  27        3PZ         0.00000   0.00000  -0.64299   0.00000   0.00000
                          26        27
                           V         V
     Eigenvalues --     1.64009   1.96542
   1 1   C  1S          0.07118   0.00000
   2        2S          0.55433  -0.00001
   3        2PX         0.00000   0.00000
   4        2PY         0.00000   0.00000
   5        2PZ         0.00000   0.58789
   6        3S          2.96821  -0.00001
   7        3PX         0.00000   0.00000
   8        3PY         0.00000   0.00000
   9        3PZ         0.00000   4.57282
  10 2   O  1S         -0.02174   0.00025
  11        2S          1.30748   1.55153
  12        2PX         0.00000   0.00000
  13        2PY         0.00000   0.00000
  14        2PZ        -0.20201  -0.00885
  15        3S         -2.69291  -5.00347
  16        3PX         0.00000   0.00000
  17        3PY         0.00000   0.00000
  18        3PZ         1.27781   1.37852
  19 3   O  1S         -0.02174  -0.00025
  20        2S          1.30748  -1.55153
  21        2PX         0.00000   0.00000
  22        2PY         0.00000   0.00000
  23        2PZ         0.20201  -0.00884
  24        3S         -2.69292   5.00348
  25        3PX         0.00000   0.00000
  26        3PY         0.00000   0.00000
  27        3PZ        -1.27781   1.37852
     Density Matrix:
                           1         2         3         4         5
   1 1   C  1S          2.05886
   2        2S         -0.11794   0.43513
   3        2PX         0.00000   0.00000   0.36051
   4        2PY         0.00000   0.00000   0.00000   0.36051
   5        2PZ         0.00000   0.00000   0.00000   0.00000   0.53382
   6        3S         -0.07415   0.15512   0.00000   0.00000   0.00000
   7        3PX         0.00000   0.00000   0.15515   0.00000   0.00000
   8        3PY         0.00000   0.00000   0.00000   0.15515   0.00000
   9        3PZ         0.00000   0.00000   0.00000   0.00000  -0.02806
  10 2   O  1S          0.01477  -0.01285   0.00000   0.00000  -0.04403
  11        2S         -0.03259   0.02916   0.00000   0.00000   0.10134
  12        2PX         0.00000   0.00000   0.29653   0.00000   0.00000
  13        2PY         0.00000   0.00000   0.00000   0.29653   0.00000
  14        2PZ         0.12529  -0.30668   0.00000   0.00000  -0.39216
  15        3S          0.00930  -0.08248   0.00000   0.00000  -0.03582
  16        3PX         0.00000   0.00000   0.15137   0.00000   0.00000
  17        3PY         0.00000   0.00000   0.00000   0.15137   0.00000
  18        3PZ         0.05832  -0.13212   0.00000   0.00000  -0.14347
  19 3   O  1S          0.01477  -0.01285   0.00000   0.00000   0.04403
  20        2S         -0.03259   0.02917   0.00000   0.00000  -0.10134
  21        2PX         0.00000   0.00000   0.29653   0.00000   0.00000
  22        2PY         0.00000   0.00000   0.00000   0.29653   0.00000
  23        2PZ        -0.12529   0.30668   0.00000   0.00000  -0.39216
  24        3S          0.00930  -0.08248   0.00000   0.00000   0.03581
  25        3PX         0.00000   0.00000   0.15137   0.00000   0.00000
  26        3PY         0.00000   0.00000   0.00000   0.15137   0.00000
  27        3PZ        -0.05832   0.13212   0.00000   0.00000  -0.14347
                           6         7         8         9        10
   6        3S          0.10102
   7        3PX         0.00000   0.06677
   8        3PY         0.00000   0.00000   0.06677
   9        3PZ         0.00000   0.00000   0.00000   0.00221
  10 2   O  1S          0.06147   0.00000   0.00000   0.02732   2.08818
  11        2S         -0.09958   0.00000   0.00000  -0.00156  -0.18198
  12        2PX         0.00000   0.12761   0.00000   0.00000   0.00000
  13        2PY         0.00000   0.00000   0.12761   0.00000   0.00000
  14        2PZ        -0.13956   0.00000   0.00000   0.02185  -0.04421
  15        3S         -0.16245   0.00000   0.00000   0.00416  -0.30751
  16        3PX         0.00000   0.06514   0.00000   0.00000   0.00000
  17        3PY         0.00000   0.00000   0.06514   0.00000   0.00000
  18        3PZ        -0.06123   0.00000   0.00000   0.00859  -0.01578
  19 3   O  1S          0.06147   0.00000   0.00000  -0.02732   0.00157
  20        2S         -0.09958   0.00000   0.00000   0.00155  -0.00546
  21        2PX         0.00000   0.12761   0.00000   0.00000   0.00000
  22        2PY         0.00000   0.00000   0.12761   0.00000   0.00000
  23        2PZ         0.13956   0.00000   0.00000   0.02185   0.00620
  24        3S         -0.16245   0.00000   0.00000  -0.00416  -0.01526
  25        3PX         0.00000   0.06514   0.00000   0.00000   0.00000
  26        3PY         0.00000   0.00000   0.06514   0.00000   0.00000
  27        3PZ         0.06123   0.00000   0.00000   0.00859  -0.00677
                          11        12        13        14        15
  11        2S          0.54765
  12        2PX         0.00000   0.70139
  13        2PY         0.00000   0.00000   0.70139
  14        2PZ         0.08766   0.00000   0.00000   0.57319
  15        3S          0.57983   0.00000   0.00000   0.28858   0.69387
  16        3PX         0.00000   0.45165   0.00000   0.00000   0.00000
  17        3PY         0.00000   0.00000   0.45165   0.00000   0.00000
  18        3PZ         0.06908   0.00000   0.00000   0.23923   0.15010
  19 3   O  1S         -0.00546   0.00000   0.00000  -0.00620  -0.01526
  20        2S          0.00574   0.00000   0.00000   0.01579   0.06461
  21        2PX         0.00000  -0.21357   0.00000   0.00000   0.00000
  22        2PY         0.00000   0.00000  -0.21357   0.00000   0.00000
  23        2PZ        -0.01578   0.00000   0.00000   0.10033  -0.00195
  24        3S          0.06461   0.00000   0.00000   0.00196   0.12521
  25        3PX         0.00000  -0.20263   0.00000   0.00000   0.00000
  26        3PY         0.00000   0.00000  -0.20263   0.00000   0.00000
  27        3PZ         0.01838   0.00000   0.00000   0.03383   0.01831
                          16        17        18        19        20
  16        3PX         0.29749
  17        3PY         0.00000   0.29749
  18        3PZ         0.00000   0.00000   0.10327
  19 3   O  1S          0.00000   0.00000   0.00677   2.08818
  20        2S          0.00000   0.00000  -0.01838  -0.18198   0.54765
  21        2PX        -0.20263   0.00000   0.00000   0.00000   0.00000
  22        2PY         0.00000  -0.20263   0.00000   0.00000   0.00000
  23        2PZ         0.00000   0.00000   0.03383   0.04421  -0.08766
  24        3S          0.00000   0.00000  -0.01831  -0.30751   0.57983
  25        3PX        -0.17038   0.00000   0.00000   0.00000   0.00000
  26        3PY         0.00000  -0.17038   0.00000   0.00000   0.00000
  27        3PZ         0.00000   0.00000   0.01386   0.01578  -0.06908
                          21        22        23        24        25
  21        2PX         0.70139
  22        2PY         0.00000   0.70139
  23        2PZ         0.00000   0.00000   0.57319
  24        3S          0.00000   0.00000  -0.28858   0.69387
  25        3PX         0.45165   0.00000   0.00000   0.00000   0.29749
  26        3PY         0.00000   0.45165   0.00000   0.00000   0.00000
  27        3PZ         0.00000   0.00000   0.23923  -0.15010   0.00000
                          26        27
  26        3PY         0.29749
  27        3PZ         0.00000   0.10327
    Full Mulliken population analysis:
                           1         2         3         4         5
   1 1   C  1S          2.05886
   2        2S         -0.02584   0.43513
   3        2PX         0.00000   0.00000   0.36051
   4        2PY         0.00000   0.00000   0.00000   0.36051
   5        2PZ         0.00000   0.00000   0.00000   0.00000   0.53382
   6        3S         -0.01366   0.12600   0.00000   0.00000   0.00000
   7        3PX         0.00000   0.00000   0.08840   0.00000   0.00000
   8        3PY         0.00000   0.00000   0.00000   0.08840   0.00000
   9        3PZ         0.00000   0.00000   0.00000   0.00000  -0.01599
  10 2   O  1S          0.00000  -0.00030   0.00000   0.00000  -0.00211
  11        2S         -0.00031   0.00539   0.00000   0.00000   0.02933
  12        2PX         0.00000   0.00000   0.02890   0.00000   0.00000
  13        2PY         0.00000   0.00000   0.00000   0.02890   0.00000
  14        2PZ        -0.00284   0.06577   0.00000   0.00000   0.11245
  15        3S          0.00065  -0.03196   0.00000   0.00000  -0.01227
  16        3PX         0.00000   0.00000   0.04446   0.00000   0.00000
  17        3PY         0.00000   0.00000   0.00000   0.04446   0.00000
  18        3PZ        -0.00903   0.07752   0.00000   0.00000   0.03744
  19 3   O  1S          0.00000  -0.00030   0.00000   0.00000  -0.00211
  20        2S         -0.00031   0.00539   0.00000   0.00000   0.02933
  21        2PX         0.00000   0.00000   0.02890   0.00000   0.00000
  22        2PY         0.00000   0.00000   0.00000   0.02890   0.00000
  23        2PZ        -0.00284   0.06577   0.00000   0.00000   0.11245
  24        3S          0.00065  -0.03196   0.00000   0.00000  -0.01227
  25        3PX         0.00000   0.00000   0.04446   0.00000   0.00000
  26        3PY         0.00000   0.00000   0.00000   0.04446   0.00000
  27        3PZ        -0.00903   0.07752   0.00000   0.00000   0.03744
                           6         7         8         9        10
   6        3S          0.10102
   7        3PX         0.00000   0.06677
   8        3PY         0.00000   0.00000   0.06677
   9        3PZ         0.00000   0.00000   0.00000   0.00221
  10 2   O  1S          0.00320   0.00000   0.00000   0.00257   2.08818
  11        2S         -0.02959   0.00000   0.00000  -0.00072  -0.04253
  12        2PX         0.00000   0.02051   0.00000   0.00000   0.00000
  13        2PY         0.00000   0.00000   0.02051   0.00000   0.00000
  14        2PZ         0.02068   0.00000   0.00000  -0.00167   0.00000
  15        3S         -0.09239   0.00000   0.00000   0.00269  -0.05144
  16        3PX         0.00000   0.03605   0.00000   0.00000   0.00000
  17        3PY         0.00000   0.00000   0.03605   0.00000   0.00000
  18        3PZ         0.03124   0.00000   0.00000  -0.00022   0.00000
  19 3   O  1S          0.00320   0.00000   0.00000   0.00257   0.00000
  20        2S         -0.02959   0.00000   0.00000  -0.00072   0.00000
  21        2PX         0.00000   0.02051   0.00000   0.00000   0.00000
  22        2PY         0.00000   0.00000   0.02051   0.00000   0.00000
  23        2PZ         0.02068   0.00000   0.00000  -0.00167   0.00000
  24        3S         -0.09239   0.00000   0.00000   0.00269  -0.00001
  25        3PX         0.00000   0.03605   0.00000   0.00000   0.00000
  26        3PY         0.00000   0.00000   0.03605   0.00000   0.00000
  27        3PZ         0.03124   0.00000   0.00000  -0.00022  -0.00003
                          11        12        13        14        15
  11        2S          0.54765
  12        2PX         0.00000   0.70139
  13        2PY         0.00000   0.00000   0.70139
  14        2PZ         0.00000   0.00000   0.00000   0.57319
  15        3S          0.44278   0.00000   0.00000   0.00000   0.69387
  16        3PX         0.00000   0.22651   0.00000   0.00000   0.00000
  17        3PY         0.00000   0.00000   0.22651   0.00000   0.00000
  18        3PZ         0.00000   0.00000   0.00000   0.11998   0.00000
  19 3   O  1S          0.00000   0.00000   0.00000   0.00000  -0.00001
  20        2S          0.00000   0.00000   0.00000   0.00000   0.00070
  21        2PX         0.00000   0.00000   0.00000   0.00000   0.00000
  22        2PY         0.00000   0.00000   0.00000   0.00000   0.00000
  23        2PZ         0.00000   0.00000   0.00000  -0.00004  -0.00003
  24        3S          0.00070   0.00000   0.00000  -0.00003   0.00824
  25        3PX         0.00000  -0.00128   0.00000   0.00000   0.00000
  26        3PY         0.00000   0.00000  -0.00128   0.00000   0.00000
  27        3PZ         0.00073   0.00000   0.00000  -0.00165   0.00281
                          16        17        18        19        20
  16        3PX         0.29749
  17        3PY         0.00000   0.29749
  18        3PZ         0.00000   0.00000   0.10327
  19 3   O  1S          0.00000   0.00000  -0.00003   2.08818
  20        2S          0.00000   0.00000   0.00073  -0.04253   0.54765
  21        2PX        -0.00128   0.00000   0.00000   0.00000   0.00000
  22        2PY         0.00000  -0.00128   0.00000   0.00000   0.00000
  23        2PZ         0.00000   0.00000  -0.00165   0.00000   0.00000
  24        3S          0.00000   0.00000   0.00281  -0.05144   0.44278
  25        3PX        -0.01121   0.00000   0.00000   0.00000   0.00000
  26        3PY         0.00000  -0.01121   0.00000   0.00000   0.00000
  27        3PZ         0.00000   0.00000  -0.00405   0.00000   0.00000
                          21        22        23        24        25
  21        2PX         0.70139
  22        2PY         0.00000   0.70139
  23        2PZ         0.00000   0.00000   0.57319
  24        3S          0.00000   0.00000   0.00000   0.69387
  25        3PX         0.22651   0.00000   0.00000   0.00000   0.29749
  26        3PY         0.00000   0.22651   0.00000   0.00000   0.00000
  27        3PZ         0.00000   0.00000   0.11998   0.00000   0.00000
                          26        27
  26        3PY         0.29749
  27        3PZ         0.00000   0.10327
     Gross orbital populations:
                           1
   1 1   C  1S          1.99629
   2        2S          0.76813
   3        2PX         0.59564
   4        2PY         0.59564
   5        2PZ         0.84752
   6        3S          0.07963
   7        3PX         0.26829
   8        3PY         0.26829
   9        3PZ        -0.00850
  10 2   O  1S          1.99752
  11        2S          0.95343
  12        2PX         0.97603
  13        2PY         0.97603
  14        2PZ         0.88584
  15        3S          0.96364
  16        3PX         0.59201
  17        3PY         0.59201
  18        3PZ         0.35803
  19 3   O  1S          1.99752
  20        2S          0.95343
  21        2PX         0.97603
  22        2PY         0.97603
  23        2PZ         0.88584
  24        3S          0.96364
  25        3PX         0.59201
  26        3PY         0.59201
  27        3PZ         0.35803
          Condensed to atoms (all electrons):
              1          2          3
     1  C    4.480211   0.465355   0.465356
     2  O    0.465355   7.847547  -0.018362
     3  O    0.465356  -0.018362   7.847543
 Mulliken atomic charges:
              1
     1  C    0.589078
     2  O   -0.294541
     3  O   -0.294537
 Sum of Mulliken atomic charges =   0.00000
 Mulliken charges with hydrogens summed into heavy atoms:
              1
     1  C    0.589078
     2  O   -0.294541
     3  O   -0.294537
 Sum of Mulliken charges with hydrogens summed into heavy atoms =   0.00000
 Electronic spatial extent (au):  <R**2>=            117.6157
 Charge=              0.0000 electrons
 Dipole moment (field-independent basis, Debye):
    X=              0.0000    Y=              0.0000    Z=              0.0000  Tot=              0.0000
 Quadrupole moment (field-independent basis, Debye-Ang):
   XX=            -14.6620   YY=            -14.6620   ZZ=            -20.4253
   XY=              0.0000   XZ=              0.0000   YZ=              0.0000
 Traceless Quadrupole moment (field-independent basis, Debye-Ang):
   XX=              1.9211   YY=              1.9211   ZZ=             -3.8422
   XY=              0.0000   XZ=              0.0000   YZ=              0.0000
 Octapole moment (field-independent basis, Debye-Ang**2):
  XXX=              0.0000  YYY=              0.0000  ZZZ=              0.0000  XYY=              0.0000
  XXY=              0.0000  XXZ=              0.0000  XZZ=              0.0000  YZZ=              0.0000
  YYZ=              0.0000  XYZ=              0.0000
 Hexadecapole moment (field-independent basis, Debye-Ang**3):
 XXXX=            -10.7253 YYYY=            -10.7253 ZZZZ=           -107.8990 XXXY=              0.0000
 XXXZ=              0.0000 YYYX=              0.0000 YYYZ=              0.0000 ZZZX=              0.0000
 ZZZY=              0.0000 XXYY=             -3.5751 XXZZ=            -18.8549 YYZZ=            -18.8549
 XXYZ=              0.0000 YYXZ=              0.0000 ZZXY=              0.0000
 N-N= 5.701982987799D+01 E-N=-5.570882701335D+02  KE= 1.873579620234D+02
 Symmetry A1   KE= 1.702931194519D+02
 Symmetry A2   KE= 0.000000000000D+00
 Symmetry B1   KE= 8.532421285748D+00
 Symmetry B2   KE= 8.532421285748D+00
 Orbital energies and kinetic energies (alpha):
                                 1                 2
   1         O               -19.252181         29.118083
   2         O               -19.252067         29.123352
   3         O               -10.404920         15.959599
   4         O                -1.183925          2.739572
   5         O                -1.148264          2.848722
   6         O                -0.563332          2.742824
   7         O                -0.525686          1.800789
   8         O                -0.525686          1.800789
   9         O                -0.515645          2.614407
  10         O                -0.372925          2.465421
  11         O                -0.372925          2.465421
  12         V                -0.003515          2.503457
  13         V                -0.003515          2.503457
  14         V                 0.056292          2.307200
  15         V                 0.371433          1.290956
  16         V                 0.466249          1.852618
  17         V                 0.466249          1.852618
  18         V                 0.608636          3.290109
  19         V                 0.723849          3.358574
  20         V                 0.867067          3.017140
  21         V                 0.873657          3.491465
  22         V                 0.873657          3.491465
  23         V                 1.000597          4.683089
  24         V                 1.040315          3.365374
  25         V                 1.040315          3.365374
  26         V                 1.640087          3.888532
  27         V                 1.965422          4.254197
 Total kinetic energy from orbitals= 1.873579620234D+02
 ******************************Gaussian NBO Version 3.1******************************
             N A T U R A L   A T O M I C   O R B I T A L   A N D
          N A T U R A L   B O N D   O R B I T A L   A N A L Y S I S
 ******************************Gaussian NBO Version 3.1******************************
       /RESON  / : Allow strongly delocalized NBO set

 Analyzing the SCF density

 Job title: CO2_M                                                           

 Storage needed:      2349 in NPA,      3015 in NBO (1342177217 available)


 NATURAL POPULATIONS:  Natural atomic orbital occupancies 
                                                          
   NAO  Atom  No  lang   Type(AO)    Occupancy      Energy
 ----------------------------------------------------------
     1    C    1  S      Cor( 1S)     1.99982     -10.30253
     2    C    1  S      Val( 2S)     0.69057      -0.19471
     3    C    1  S      Ryd( 3S)     0.00088       0.42793
     4    C    1  px     Val( 2p)     0.79359      -0.19341
     5    C    1  px     Ryd( 3p)     0.00086       0.45963
     6    C    1  py     Val( 2p)     0.79359      -0.19341
     7    C    1  py     Ryd( 3p)     0.00086       0.45963
     8    C    1  pz     Val( 2p)     0.73824       0.07290
     9    C    1  pz     Ryd( 3p)     0.02848       0.44022

    10    O    2  S      Cor( 1S)     1.99975     -19.00409
    11    O    2  S      Val( 2S)     1.74678      -0.98380
    12    O    2  S      Ryd( 3S)     0.00234       1.69945
    13    O    2  px     Val( 2p)     1.60154      -0.34224
    14    O    2  px     Ryd( 3p)     0.00124       0.94818
    15    O    2  py     Val( 2p)     1.60154      -0.34224
    16    O    2  py     Ryd( 3p)     0.00124       0.94818
    17    O    2  pz     Val( 2p)     1.52108      -0.38623
    18    O    2  pz     Ryd( 3p)     0.00107       0.90930

    19    O    3  S      Cor( 1S)     1.99975     -19.00409
    20    O    3  S      Val( 2S)     1.74677      -0.98380
    21    O    3  S      Ryd( 3S)     0.00234       1.69945
    22    O    3  px     Val( 2p)     1.60153      -0.34224
    23    O    3  px     Ryd( 3p)     0.00124       0.94818
    24    O    3  py     Val( 2p)     1.60153      -0.34224
    25    O    3  py     Ryd( 3p)     0.00124       0.94818
    26    O    3  pz     Val( 2p)     1.52108      -0.38623
    27    O    3  pz     Ryd( 3p)     0.00107       0.90930


 Summary of Natural Population Analysis:                  
                                                          
                                       Natural Population 
                Natural  -----------------------------------------------
    Atom  No    Charge         Core      Valence    Rydberg      Total
 -----------------------------------------------------------------------
      C    1    0.95312      1.99982     3.01599    0.03107     5.04688
      O    2   -0.47656      1.99975     6.47093    0.00588     8.47656
      O    3   -0.47656      1.99975     6.47093    0.00589     8.47656
 =======================================================================
   * Total *    0.00000      5.99931    15.95785    0.04284    22.00000

                                 Natural Population      
 --------------------------------------------------------
   Core                       5.99931 ( 99.9885% of   6)
   Valence                   15.95785 ( 99.7365% of  16)
   Natural Minimal Basis     21.95716 ( 99.8053% of  22)
   Natural Rydberg Basis      0.04284 (  0.1947% of  22)
 --------------------------------------------------------

    Atom  No          Natural Electron Configuration
 ----------------------------------------------------------------------------
      C    1      [core]2S( 0.69)2p( 2.33)3p( 0.03)
      O    2      [core]2S( 1.75)2p( 4.72)
      O    3      [core]2S( 1.75)2p( 4.72)


 NATURAL BOND ORBITAL ANALYSIS:

                       Occupancies       Lewis Structure    Low   High
           Occ.    -------------------  -----------------   occ   occ
  Cycle   Thresh.   Lewis   Non-Lewis     CR  BD  3C  LP    (L)   (NL)   Dev
 =============================================================================
   1(1)    1.90    21.13954   0.86046      3   4   0   4     2      2    0.90
   2(2)    1.90    21.13954   0.86046      3   4   0   4     2      2    0.90
   3(1)    1.80    21.13954   0.86046      3   4   0   4     2      2    0.90
   4(2)    1.80    21.13954   0.86046      3   4   0   4     2      2    0.90
   5(1)    1.70    21.13954   0.86046      3   4   0   4     2      2    0.90
   6(2)    1.70    21.13954   0.86046      3   4   0   4     2      2    0.90
   7(1)    1.60    20.34509   1.65491      3   2   0   6     0      2    0.90
   8(2)    1.60    20.34509   1.65491      3   2   0   6     0      2    0.90
   9(1)    1.50    20.34509   1.65491      3   2   0   6     0      2    0.90
  10(2)    1.50    20.34509   1.65491      3   2   0   6     0      2    0.90
  11(1)    1.90    21.13954   0.86046      3   4   0   4     2      2    0.90
 -----------------------------------------------------------------------------

 Structure accepted: RESONANCE keyword permits strongly delocalized structure

 --------------------------------------------------------
   Core                      5.99931 ( 99.988% of   6)
   Valence Lewis            15.14024 ( 94.626% of  16)
  ==================       ============================
   Total Lewis              21.13954 ( 96.089% of  22)
  -----------------------------------------------------
   Valence non-Lewis         0.82896 (  3.768% of  22)
   Rydberg non-Lewis         0.03150 (  0.143% of  22)
  ==================       ============================
   Total non-Lewis           0.86046 (  3.911% of  22)
 --------------------------------------------------------


       (Occupancy)   Bond orbital/ Coefficients/ Hybrids
 ---------------------------------------------------------------------------------
     1. (1.99937) BD ( 1) C   1 - O   2  
                ( 35.26%)   0.5938* C   1 s( 50.00%)p 1.00( 50.00%)
                                           -0.0001  0.7071 -0.0030  0.0000  0.0000
                                            0.0000  0.0000  0.7039  0.0673
                ( 64.74%)   0.8046* O   2 s( 33.42%)p 1.99( 66.58%)
                                            0.0000  0.5770  0.0367  0.0000  0.0000
                                            0.0000  0.0000 -0.8156  0.0235
     2. (1.99937) BD ( 1) C   1 - O   3  
                ( 35.26%)   0.5938* C   1 s( 50.00%)p 1.00( 50.00%)
                                           -0.0001  0.7071 -0.0030  0.0000  0.0000
                                            0.0000  0.0000 -0.7039 -0.0673
                ( 64.74%)   0.8046* O   3 s( 33.42%)p 1.99( 66.58%)
                                            0.0000  0.5770  0.0367  0.0000  0.0000
                                            0.0000  0.0000  0.8156 -0.0235
     3. (1.99883) BD ( 2) C   1 - O   3  
                ( 24.81%)   0.4980* C   1 s(  0.00%)p 1.00(100.00%)
                                            0.0000  0.0000  0.0000  0.9995 -0.0328
                                            0.0000  0.0000  0.0000  0.0000
                ( 75.19%)   0.8671* O   3 s(  0.00%)p 1.00(100.00%)
                                            0.0000  0.0000  0.0000  1.0000 -0.0002
                                            0.0000  0.0000  0.0000  0.0000
     4. (1.99883) BD ( 3) C   1 - O   3  
                ( 24.81%)   0.4980* C   1 s(  0.00%)p 1.00(100.00%)
                                            0.0000  0.0000  0.0000  0.0000  0.0000
                                            0.9995 -0.0328  0.0000  0.0000
                ( 75.19%)   0.8671* O   3 s(  0.00%)p 1.00(100.00%)
                                            0.0000  0.0000  0.0000  0.0000  0.0000
                                            1.0000 -0.0002  0.0000  0.0000
     5. (1.99982) CR ( 1) C   1           s(100.00%)
                                            1.0000  0.0001  0.0000  0.0000  0.0000
                                            0.0000  0.0000  0.0000  0.0000
     6. (1.99974) CR ( 1) O   2           s(100.00%)p 0.00(  0.00%)
                                            1.0000  0.0004  0.0000  0.0000  0.0000
                                            0.0000  0.0000  0.0003  0.0000
     7. (1.99974) CR ( 1) O   3           s(100.00%)p 0.00(  0.00%)
                                            1.0000  0.0004  0.0000  0.0000  0.0000
                                            0.0000  0.0000 -0.0003  0.0000
     8. (1.97030) LP ( 1) O   2           s( 66.71%)p 0.50( 33.29%)
                                           -0.0005  0.8166 -0.0170  0.0000  0.0000
                                            0.0000  0.0000  0.5770  0.0030
     9. (1.60161) LP ( 2) O   2           s(  0.00%)p 1.00(100.00%)
                                            0.0000  0.0000  0.0000  1.0000  0.0067
                                            0.0000  0.0000  0.0000  0.0000
    10. (1.60161) LP ( 3) O   2           s(  0.00%)p 1.00(100.00%)
                                            0.0000  0.0000  0.0000  0.0000  0.0000
                                            1.0000  0.0067  0.0000  0.0000
    11. (1.97030) LP ( 1) O   3           s( 66.71%)p 0.50( 33.29%)
                                           -0.0005  0.8166 -0.0170  0.0000  0.0000
                                            0.0000  0.0000 -0.5770 -0.0030
    12. (0.02503) RY*( 1) C   1           s(  0.00%)p 1.00(100.00%)
                                            0.0000  0.0000  0.0000  0.0000  0.0000
                                            0.0000  0.0000 -0.0952  0.9955
    13. (0.00089) RY*( 2) C   1           s(100.00%)
                                            0.0000  0.0042  1.0000  0.0000  0.0000
                                            0.0000  0.0000  0.0000  0.0000
    14. (0.00000) RY*( 3) C   1           s(  0.00%)p 1.00(100.00%)
    15. (0.00000) RY*( 4) C   1           s(  0.00%)p 1.00(100.00%)
    16. (0.00117) RY*( 1) O   2           s(  0.00%)p 1.00(100.00%)
                                            0.0000  0.0000  0.0000 -0.0067  1.0000
                                            0.0000  0.0000  0.0000  0.0000
    17. (0.00117) RY*( 2) O   2           s(  0.00%)p 1.00(100.00%)
                                            0.0000  0.0000  0.0000  0.0000  0.0000
                                           -0.0067  1.0000  0.0000  0.0000
    18. (0.00036) RY*( 3) O   2           s(  7.15%)p12.99( 92.85%)
                                            0.0000 -0.0174  0.2668  0.0000  0.0000
                                            0.0000  0.0000  0.0274  0.9632
    19. (0.00002) RY*( 4) O   2           s( 92.72%)p 0.08(  7.28%)
    20. (0.00124) RY*( 1) O   3           s(  0.00%)p 1.00(100.00%)
                                            0.0000  0.0000  0.0000  0.0002  1.0000
                                            0.0000  0.0000  0.0000  0.0000
    21. (0.00124) RY*( 2) O   3           s(  0.00%)p 1.00(100.00%)
                                            0.0000  0.0000  0.0000  0.0000  0.0000
                                            0.0002  1.0000  0.0000  0.0000
    22. (0.00036) RY*( 3) O   3           s(  7.15%)p12.99( 92.85%)
                                            0.0000 -0.0174  0.2668  0.0000  0.0000
                                            0.0000  0.0000 -0.0274 -0.9632
    23. (0.00002) RY*( 4) O   3           s( 92.72%)p 0.08(  7.28%)
    24. (0.01733) BD*( 1) C   1 - O   2  
                ( 64.74%)   0.8046* C   1 s( 50.00%)p 1.00( 50.00%)
                                           -0.0001  0.7071 -0.0030  0.0000  0.0000
                                            0.0000  0.0000  0.7039  0.0673
                ( 35.26%)  -0.5938* O   2 s( 33.42%)p 1.99( 66.58%)
                                            0.0000  0.5770  0.0367  0.0000  0.0000
                                            0.0000  0.0000 -0.8156  0.0235
    25. (0.01733) BD*( 1) C   1 - O   3  
                ( 64.74%)   0.8046* C   1 s( 50.00%)p 1.00( 50.00%)
                                           -0.0001  0.7071 -0.0030  0.0000  0.0000
                                            0.0000  0.0000 -0.7039 -0.0673
                ( 35.26%)  -0.5938* O   3 s( 33.42%)p 1.99( 66.58%)
                                            0.0000  0.5770  0.0367  0.0000  0.0000
                                            0.0000  0.0000  0.8156 -0.0235
    26. (0.39715) BD*( 2) C   1 - O   3  
                ( 75.19%)   0.8671* C   1 s(  0.00%)p 1.00(100.00%)
                                            0.0000  0.0000  0.0000  0.9995 -0.0328
                                            0.0000  0.0000  0.0000  0.0000
                ( 24.81%)  -0.4980* O   3 s(  0.00%)p 1.00(100.00%)
                                            0.0000  0.0000  0.0000  1.0000 -0.0002
                                            0.0000  0.0000  0.0000  0.0000
    27. (0.39715) BD*( 3) C   1 - O   3  
                ( 75.19%)   0.8671* C   1 s(  0.00%)p 1.00(100.00%)
                                            0.0000  0.0000  0.0000  0.0000  0.0000
                                            0.9995 -0.0328  0.0000  0.0000
                ( 24.81%)  -0.4980* O   3 s(  0.00%)p 1.00(100.00%)
                                            0.0000  0.0000  0.0000  0.0000  0.0000
                                            1.0000 -0.0002  0.0000  0.0000


 NHO Directionality and "Bond Bending" (deviations from line of nuclear centers)

         [Thresholds for printing:  angular deviation  >  1.0 degree]
                                    hybrid p-character > 25.0%
                                    orbital occupancy  >  0.10e

                                Line of Centers        Hybrid 1              Hybrid 2
                                ---------------  -------------------   ------------------
                NBO               Theta   Phi    Theta   Phi    Dev    Theta   Phi    Dev
 ========================================================================================
     3. BD (   2) C   1 - O   3   180.0    0.0    90.0    0.0  90.0     90.0    0.0  90.0
     4. BD (   3) C   1 - O   3   180.0    0.0    90.0   90.0  90.0     90.0   90.0  90.0
     8. LP (   1) O   2             --     --      0.0    0.0   --       --     --    --
     9. LP (   2) O   2             --     --     90.0    0.0   --       --     --    --
    10. LP (   3) O   2             --     --     90.0   90.0   --       --     --    --
    11. LP (   1) O   3             --     --    180.0    0.0   --       --     --    --
    26. BD*(   2) C   1 - O   3   180.0    0.0    90.0    0.0  90.0     90.0    0.0  90.0
    27. BD*(   3) C   1 - O   3   180.0    0.0    90.0   90.0  90.0     90.0   90.0  90.0


 Second Order Perturbation Theory Analysis of Fock Matrix in NBO Basis

     Threshold for printing:   0.50 kcal/mol
                                                                              E(2)  E(j)-E(i) F(i,j)
         Donor NBO (i)                     Acceptor NBO (j)                 kcal/mol   a.u.    a.u. 
 ===================================================================================================

 within unit  1
   1. BD (   1) C   1 - O   2        / 12. RY*(   1) C   1                    1.26    1.61    0.040
   1. BD (   1) C   1 - O   2        / 25. BD*(   1) C   1 - O   3            2.54    1.74    0.060
   2. BD (   1) C   1 - O   3        / 12. RY*(   1) C   1                    1.26    1.61    0.040
   2. BD (   1) C   1 - O   3        / 24. BD*(   1) C   1 - O   2            2.54    1.74    0.060
   3. BD (   2) C   1 - O   3        / 16. RY*(   1) O   2                    1.04    1.42    0.034
   3. BD (   2) C   1 - O   3        / 26. BD*(   2) C   1 - O   3            2.55    0.39    0.032
   4. BD (   3) C   1 - O   3        / 17. RY*(   2) O   2                    1.04    1.42    0.034
   4. BD (   3) C   1 - O   3        / 27. BD*(   3) C   1 - O   3            2.55    0.39    0.032
   5. CR (   1) C   1                / 18. RY*(   3) O   2                    0.78   11.33    0.084
   5. CR (   1) C   1                / 22. RY*(   3) O   3                    0.78   11.33    0.084
   6. CR (   1) O   2                / 12. RY*(   1) C   1                    5.86   19.44    0.303
   6. CR (   1) O   2                / 25. BD*(   1) C   1 - O   3            3.51   19.56    0.235
   7. CR (   1) O   3                / 12. RY*(   1) C   1                    5.86   19.44    0.303
   7. CR (   1) O   3                / 24. BD*(   1) C   1 - O   2            3.51   19.56    0.235
   8. LP (   1) O   2                / 12. RY*(   1) C   1                   12.20    1.23    0.109
   8. LP (   1) O   2                / 25. BD*(   1) C   1 - O   3           16.15    1.35    0.132
   9. LP (   2) O   2                / 15. RY*(   4) C   1                    1.23    0.81    0.031
   9. LP (   2) O   2                / 26. BD*(   2) C   1 - O   3          144.02    0.27    0.176
  10. LP (   3) O   2                / 14. RY*(   3) C   1                    1.23    0.81    0.031
  10. LP (   3) O   2                / 27. BD*(   3) C   1 - O   3          144.02    0.27    0.176
  11. LP (   1) O   3                / 12. RY*(   1) C   1                   12.20    1.23    0.109
  11. LP (   1) O   3                / 24. BD*(   1) C   1 - O   2           16.15    1.35    0.132
  26. BD*(   2) C   1 - O   3        / 15. RY*(   4) C   1                    2.00    0.54    0.066
  26. BD*(   2) C   1 - O   3        / 16. RY*(   1) O   2                    0.81    1.02    0.057
  26. BD*(   2) C   1 - O   3        / 20. RY*(   1) O   3                    1.32    1.02    0.073
  27. BD*(   3) C   1 - O   3        / 14. RY*(   3) C   1                    2.00    0.54    0.066
  27. BD*(   3) C   1 - O   3        / 17. RY*(   2) O   2                    0.81    1.02    0.057
  27. BD*(   3) C   1 - O   3        / 21. RY*(   2) O   3                    1.32    1.02    0.073


 Natural Bond Orbitals (Summary):

                                                            Principal Delocalizations
           NBO                        Occupancy    Energy   (geminal,vicinal,remote)
 ====================================================================================
 Molecular unit  1  (CO2)
     1. BD (   1) C   1 - O   2          1.99937    -1.18106  25(g),12(g)
     2. BD (   1) C   1 - O   3          1.99937    -1.18106  24(g),12(g)
     3. BD (   2) C   1 - O   3          1.99883    -0.46744  26(g),16(v)
     4. BD (   3) C   1 - O   3          1.99883    -0.46744  27(g),17(v)
     5. CR (   1) C   1                  1.99982   -10.30263  18(v),22(v)
     6. CR (   1) O   2                  1.99974   -19.00566  12(v),25(v)
     7. CR (   1) O   3                  1.99974   -19.00566  12(v),24(v)
     8. LP (   1) O   2                  1.97030    -0.79551  25(v),12(v)
     9. LP (   2) O   2                  1.60161    -0.34263  26(v),15(v)
    10. LP (   3) O   2                  1.60161    -0.34263  27(v),14(v)
    11. LP (   1) O   3                  1.97030    -0.79551  24(v),12(v)
    12. RY*(   1) C   1                  0.02503     0.43015   
    13. RY*(   2) C   1                  0.00089     0.42586   
    14. RY*(   3) C   1                  0.00000     0.46410   
    15. RY*(   4) C   1                  0.00000     0.46410   
    16. RY*(   1) O   2                  0.00117     0.94857   
    17. RY*(   2) O   2                  0.00117     0.94857   
    18. RY*(   3) O   2                  0.00036     1.02941   
    19. RY*(   4) O   2                  0.00002     1.57350   
    20. RY*(   1) O   3                  0.00124     0.94817   
    21. RY*(   2) O   3                  0.00124     0.94817   
    22. RY*(   3) O   3                  0.00036     1.02941   
    23. RY*(   4) O   3                  0.00002     1.57350   
    24. BD*(   1) C   1 - O   2          0.01733     0.55915   
    25. BD*(   1) C   1 - O   3          0.01733     0.55916   
    26. BD*(   2) C   1 - O   3          0.39715    -0.07268  15(g),20(g),16(v)
    27. BD*(   3) C   1 - O   3          0.39715    -0.07268  14(g),21(g),17(v)
       -------------------------------
              Total Lewis   21.13954  ( 96.0888%)
        Valence non-Lewis    0.82896  (  3.7680%)
        Rydberg non-Lewis    0.03150  (  0.1432%)
       -------------------------------
            Total unit  1   22.00000  (100.0000%)
           Charge unit  1    0.00000
 1\1\GINC-COMPUTE-0-2\SP\RB3LYP\6-31G\C1O2\VIJI\05-Jun-2025\0\\# b3lyp/
 6-31g pop=(full,nbo) geom=connectivity scf=xqc gfinput\\CO2_M\\0,1\C,0
 ,0.,0.,-0.000001\O,0,0.,0.,1.187915\O,0,0.,0.,-1.187914\\Version=AM64L
 -G09RevB.01\State=1-SG\HF=-188.5002697\RMSD=8.505e-10\Dipole=0.,0.,-0.
 0000058\Quadrupole=1.4283061,1.4283061,-2.8566121,0.,0.,0.\PG=C*V [C*(
 O1C1O1)]\\@


 IT IS NOT EASY TO DESCRIBE
     THE SEA WITH THE MOUTH

                   -- KOKYU
 Job cpu time:  0 days  0 hours  0 minutes 16.6 seconds.
 File lengths (MBytes):  RWF=      5 Int=      0 D2E=      0 Chk=      2 Scr=      1
 Normal termination of Gaussian 09 at Thu Jun  5 17:42:52 2025.
