 Entering Gaussian System, Link 0=g09
 Input=H20_D.gjf
 Output=H20_D.log
 Initial command:
 /share/apps/g09/l1.exe /scratch/Gau-9544.inp -scrdir=/scratch/
 Entering Link 1 = /share/apps/g09/l1.exe PID=      9545.
  
 Copyright (c) 1988,1990,1992,1993,1995,1998,2003,2009,2010,
            Gaussian, Inc.  All Rights Reserved.
  
 This is part of the Gaussian(R) 09 program.  It is based on
 the Gaussian(R) 03 system (copyright 2003, Gaussian, Inc.),
 the Gaussian(R) 98 system (copyright 1998, Gaussian, Inc.),
 the Gaussian(R) 94 system (copyright 1995, Gaussian, Inc.),
 the Gaussian 92(TM) system (copyright 1992, Gaussian, Inc.),
 the Gaussian 90(TM) system (copyright 1990, Gaussian, Inc.),
 the Gaussian 88(TM) system (copyright 1988, Gaussian, Inc.),
 the Gaussian 86(TM) system (copyright 1986, Carnegie Mellon
 University), and the Gaussian 82(TM) system (copyright 1983,
 Carnegie Mellon University). Gaussian is a federally registered
 trademark of Gaussian, Inc.
  
 This software contains proprietary and confidential information,
 including trade secrets, belonging to Gaussian, Inc.
  
 This software is provided under written license and may be
 used, copied, transmitted, or stored only in accord with that
 written license.
  
 The following legend is applicable only to US Government
 contracts under FAR:
  
                    RESTRICTED RIGHTS LEGEND
  
 Use, reproduction and disclosure by the US Government is
 subject to restrictions as set forth in subparagraphs (a)
 and (c) of the Commercial Computer Software - Restricted
 Rights clause in FAR 52.227-19.
  
 Gaussian, Inc.
 340 Quinnipiac St., Bldg. 40, Wallingford CT 06492
  
  
 ---------------------------------------------------------------
 Warning -- This program may not be used in any manner that
 competes with the business of Gaussian, Inc. or will provide
 assistance to any competitor of Gaussian, Inc.  The licensee
 of this program is prohibited from giving any competitor of
 Gaussian, Inc. access to this program.  By using this program,
 the user acknowledges that Gaussian, Inc. is engaged in the
 business of creating and licensing software in the field of
 computational chemistry and represents and warrants to the
 licensee that it is not a competitor of Gaussian, Inc. and that
 it will not use this program in any manner prohibited above.
 ---------------------------------------------------------------
  

 Cite this work as:
 Gaussian 09, Revision B.01,
 M. J. Frisch, G. W. Trucks, H. B. Schlegel, G. E. Scuseria, 
 M. A. Robb, J. R. Cheeseman, G. Scalmani, V. Barone, B. Mennucci, 
 G. A. Petersson, H. Nakatsuji, M. Caricato, X. Li, H. P. Hratchian, 
 A. F. Izmaylov, J. Bloino, G. Zheng, J. L. Sonnenberg, M. Hada, 
 M. Ehara, K. Toyota, R. Fukuda, J. Hasegawa, M. Ishida, T. Nakajima, 
 Y. Honda, O. Kitao, H. Nakai, T. Vreven, J. A. Montgomery, Jr., 
 J. E. Peralta, F. Ogliaro, M. Bearpark, J. J. Heyd, E. Brothers, 
 K. N. Kudin, V. N. Staroverov, T. Keith, R. Kobayashi, J. Normand, 
 K. Raghavachari, A. Rendell, J. C. Burant, S. S. Iyengar, J. Tomasi, 
 M. Cossi, N. Rega, J. M. Millam, M. Klene, J. E. Knox, J. B. Cross, 
 V. Bakken, C. Adamo, J. Jaramillo, R. Gomperts, R. E. Stratmann, 
 O. Yazyev, A. J. Austin, R. Cammi, C. Pomelli, J. W. Ochterski, 
 R. L. Martin, K. Morokuma, V. G. Zakrzewski, G. A. Voth, 
 P. Salvador, J. J. Dannenberg, S. Dapprich, A. D. Daniels, 
 O. Farkas, J. B. Foresman, J. V. Ortiz, J. Cioslowski, 
 and D. J. Fox, Gaussian, Inc., Wallingford CT, 2010.
 
 ******************************************
 Gaussian 09:  AM64L-G09RevB.01 12-Aug-2010
                 5-Jun-2025 
 ******************************************
 %chk=H20_D.chk
 %mem=10GB
 %nprocshared=8
 Will use up to    8 processors via shared memory.
 --------------------------------------------------------------
 # b3lyp/6-31g pop=(full,nbo) geom=connectivity scf=xqc gfinput
 --------------------------------------------------------------
 1/38=1,57=2/1;
 2/12=2,17=6,18=5,40=1/2;
 3/5=1,6=6,11=2,16=1,24=10,25=1,30=1,74=-5/1,2,3;
 4//1;
 5/5=2,8=3,13=1,38=5/2,8;
 6/7=3,28=1/1,7;
 99/5=1,9=1/99;
 -----
 H20_M
 -----
 Symbolic Z-matrix:
 Charge =  0 Multiplicity = 1
 O                     0.        0.        0.11435 
 H                     0.        0.791    -0.4574 
 H                     0.       -0.791    -0.4574 
 
                          Input orientation:                          
 ---------------------------------------------------------------------
 Center     Atomic      Atomic             Coordinates (Angstroms)
 Number     Number       Type             X           Y           Z
 ---------------------------------------------------------------------
      1          8           0        0.000000    0.000000    0.114350
      2          1           0        0.000000    0.790999   -0.457400
      3          1           0        0.000000   -0.790999   -0.457400
 ---------------------------------------------------------------------
                    Distance matrix (angstroms):
                    1          2          3
     1  O    0.000000
     2  H    0.976001   0.000000
     3  H    0.976001   1.581998   0.000000
 Stoichiometry    H2O
 Framework group  C2V[C2(O),SGV(H2)]
 Deg. of freedom     2
 Full point group                 C2V     NOp   4
 Largest Abelian subgroup         C2V     NOp   4
 Largest concise Abelian subgroup C2      NOp   2
                         Standard orientation:                         
 ---------------------------------------------------------------------
 Center     Atomic      Atomic             Coordinates (Angstroms)
 Number     Number       Type             X           Y           Z
 ---------------------------------------------------------------------
      1          8           0        0.000000    0.000000    0.114350
      2          1           0        0.000000    0.790999   -0.457400
      3          1           0        0.000000   -0.790999   -0.457400
 ---------------------------------------------------------------------
 Rotational constants (GHZ):    863.6447037    400.7284608    273.7222068
 Standard basis: 6-31G (6D, 7F)
 AO basis set in the form of general basis input (Overlap normalization):
      1 0
 S   6 1.00       0.000000000000
      0.5484671660D+04  0.1831074430D-02
      0.8252349460D+03  0.1395017220D-01
      0.1880469580D+03  0.6844507810D-01
      0.5296450000D+02  0.2327143360D+00
      0.1689757040D+02  0.4701928980D+00
      0.5799635340D+01  0.3585208530D+00
 SP   3 1.00       0.000000000000
      0.1553961625D+02 -0.1107775495D+00  0.7087426823D-01
      0.3599933586D+01 -0.1480262627D+00  0.3397528391D+00
      0.1013761750D+01  0.1130767015D+01  0.7271585773D+00
 SP   1 1.00       0.000000000000
      0.2700058226D+00  0.1000000000D+01  0.1000000000D+01
 ****
      2 0
 S   3 1.00       0.000000000000
      0.1873113696D+02  0.3349460434D-01
      0.2825394365D+01  0.2347269535D+00
      0.6401216923D+00  0.8137573261D+00
 S   1 1.00       0.000000000000
      0.1612777588D+00  0.1000000000D+01
 ****
      3 0
 S   3 1.00       0.000000000000
      0.1873113696D+02  0.3349460434D-01
      0.2825394365D+01  0.2347269535D+00
      0.6401216923D+00  0.8137573261D+00
 S   1 1.00       0.000000000000
      0.1612777588D+00  0.1000000000D+01
 ****

 There are     7 symmetry adapted basis functions of A1  symmetry.
 There are     0 symmetry adapted basis functions of A2  symmetry.
 There are     2 symmetry adapted basis functions of B1  symmetry.
 There are     4 symmetry adapted basis functions of B2  symmetry.
 Integral buffers will be    131072 words long.
 Raffenetti 2 integral format.
 Two-electron integral symmetry is turned on.
    13 basis functions,    30 primitive gaussians,    13 cartesian basis functions
     5 alpha electrons        5 beta electrons
       nuclear repulsion energy         9.0095287555 Hartrees.
 NAtoms=    3 NActive=    3 NUniq=    2 SFac= 2.25D+00 NAtFMM=   50 NAOKFM=F Big=F
 One-electron integrals computed using PRISM.
 NBasis=    13 RedAO= T  NBF=     7     0     2     4
 NBsUse=    13 1.00D-06 NBFU=     7     0     2     4
 Harris functional with IExCor=  402 diagonalized for initial guess.
 ExpMin= 1.61D-01 ExpMax= 5.48D+03 ExpMxC= 8.25D+02 IAcc=1 IRadAn=         1 AccDes= 0.00D+00
 HarFok:  IExCor=  402 AccDes= 0.00D+00 IRadAn=         1 IDoV= 1
 ScaDFX=  1.000000  1.000000  1.000000  1.000000
 FoFCou: FMM=F IPFlag=           0 FMFlag=      100000 FMFlg1=           0
         NFxFlg=           0 DoJE=T BraDBF=F KetDBF=T FulRan=T
         Omega=  0.000000  0.000000  1.000000  0.000000  0.000000 ICntrl=     500 IOpCl=  0
         NMat0=    1 NMatS0=    1 NMatT0=    0 NMatD0=    1 NMtDS0=    0 NMtDT0=    0
         I1Cent=           4 NGrid=           0.
 Petite list used in FoFCou.
 Initial guess orbital symmetries:
       Occupied  (A1) (A1) (B2) (A1) (B1)
       Virtual   (A1) (B2) (A1) (B1) (B2) (A1) (B2) (A1)
 The electronic state of the initial guess is 1-A1.
 Requested convergence on RMS density matrix=1.00D-08 within  64 cycles.
 Requested convergence on MAX density matrix=1.00D-06.
 Requested convergence on             energy=1.00D-06.
 No special actions if energy rises.
 Keep R1 ints in memory in canonical form, NReq=893478.
 Integral accuracy reduced to 1.0D-05 until final iterations.
 Initial convergence to 1.0D-05 achieved.  Increase integral accuracy.
 SCF Done:  E(RB3LYP) =  -76.3861166006     A.U. after    8 cycles
             Convg  =    0.6211D-08             -V/T =  2.0051
 QCSCF skips out because SCF is already converged.

 **********************************************************************

            Population analysis using the SCF density.

 **********************************************************************

 Orbital symmetries:
       Occupied  (A1) (A1) (B2) (A1) (B1)
       Virtual   (A1) (B2) (B2) (A1) (B1) (A1) (B2) (A1)
 The electronic state is 1-A1.
 Alpha  occ. eigenvalues --  -19.13359  -1.00637  -0.52942  -0.34862  -0.28961
 Alpha virt. eigenvalues --    0.05277   0.14237   0.82185   0.85101   0.89052
 Alpha virt. eigenvalues --    0.94469   1.07115   1.40875
     Molecular Orbital Coefficients:
                           1         2         3         4         5
                        (A1)--O   (A1)--O   (B2)--O   (A1)--O   (B1)--O
     Eigenvalues --   -19.13359  -1.00637  -0.52942  -0.34862  -0.28961
   1 1   O  1S          0.99504  -0.21041   0.00000  -0.08728   0.00000
   2        2S          0.02785   0.46591   0.00000   0.19450   0.00000
   3        2PX         0.00000   0.00000   0.00000   0.00000   0.64596
   4        2PY         0.00000   0.00000   0.51253   0.00000   0.00000
   5        2PZ        -0.00214  -0.14451   0.00000   0.54898   0.00000
   6        3S         -0.01299   0.45730   0.00000   0.36016   0.00000
   7        3PX         0.00000   0.00000   0.00000   0.00000   0.50531
   8        3PY         0.00000   0.00000   0.23548   0.00000   0.00000
   9        3PZ         0.00258  -0.06881   0.00000   0.38522   0.00000
  10 2   H  1S          0.00012   0.14626   0.26555  -0.13882   0.00000
  11        2S          0.00301   0.00106   0.14849  -0.10666   0.00000
  12 3   H  1S          0.00012   0.14626  -0.26555  -0.13882   0.00000
  13        2S          0.00301   0.00106  -0.14849  -0.10666   0.00000
                           6         7         8         9        10
                        (A1)--V   (B2)--V   (B2)--V   (A1)--V   (B1)--V
     Eigenvalues --     0.05277   0.14237   0.82185   0.85101   0.89052
   1 1   O  1S         -0.08941   0.00000   0.00000   0.04322   0.00000
   2        2S          0.15697   0.00000   0.00000  -0.22747   0.00000
   3        2PX         0.00000   0.00000   0.00000   0.00000  -0.95853
   4        2PY         0.00000  -0.42233  -0.25165   0.00000   0.00000
   5        2PZ        -0.28983   0.00000   0.00000   0.63858   0.00000
   6        3S          1.07337   0.00000   0.00000   0.26807   0.00000
   7        3PX         0.00000   0.00000   0.00000   0.00000   1.03957
   8        3PY         0.00000  -0.75656  -0.43426   0.00000   0.00000
   9        3PZ        -0.43470   0.00000   0.00000  -0.28388   0.00000
  10 2   H  1S         -0.10807   0.09641   0.97613   0.82385   0.00000
  11        2S         -0.92611   1.24816  -0.71167  -0.62733   0.00000
  12 3   H  1S         -0.10807  -0.09641  -0.97613   0.82385   0.00000
  13        2S         -0.92611  -1.24816   0.71167  -0.62733   0.00000
                          11        12        13
                        (A1)--V   (B2)--V   (A1)--V
     Eigenvalues --     0.94469   1.07115   1.40875
   1 1   O  1S          0.06772   0.00000   0.05895
   2        2S         -0.39851   0.00000  -1.67576
   3        2PX         0.00000   0.00000   0.00000
   4        2PY         0.00000  -0.97267   0.00000
   5        2PZ        -0.72503   0.00000   0.17876
   6        3S          0.03819   0.00000   2.70825
   7        3PX         0.00000   0.00000   0.00000
   8        3PY         0.00000   1.71048   0.00000
   9        3PZ         1.17004   0.00000  -0.79045
  10 2   H  1S          0.52919  -0.09138  -0.42127
  11        2S         -0.08351  -0.86217  -0.61547
  12 3   H  1S          0.52919   0.09138  -0.42127
  13        2S         -0.08351   0.86217  -0.61547
     Density Matrix:
                           1         2         3         4         5
   1 1   O  1S          2.08400
   2        2S         -0.17459   0.51135
   3        2PX         0.00000   0.00000   0.83453
   4        2PY         0.00000   0.00000   0.00000   0.52537
   5        2PZ        -0.03927   0.07878   0.00000   0.00000   0.64454
   6        3S         -0.28116   0.56550   0.00000   0.00000   0.26333
   7        3PX         0.00000   0.00000   0.65282   0.00000   0.00000
   8        3PY         0.00000   0.00000   0.00000   0.24138   0.00000
   9        3PZ        -0.03316   0.08588   0.00000   0.00000   0.44284
  10 2   H  1S         -0.03708   0.08229   0.00000   0.27221  -0.19469
  11        2S          0.02416  -0.04034   0.00000   0.15221  -0.11742
  12 3   H  1S         -0.03708   0.08229   0.00000  -0.27221  -0.19469
  13        2S          0.02416  -0.04034   0.00000  -0.15221  -0.11742
                           6         7         8         9        10
   6        3S          0.67801
   7        3PX         0.00000   0.51067
   8        3PY         0.00000   0.00000   0.11090
   9        3PZ         0.21448   0.00000   0.00000   0.30628
  10 2   H  1S          0.03377   0.00000   0.12506  -0.12708   0.22236
  11        2S         -0.07594   0.00000   0.06993  -0.08230   0.10879
  12 3   H  1S          0.03377   0.00000  -0.12506  -0.12708  -0.05971
  13        2S         -0.07594   0.00000  -0.06993  -0.08230  -0.04894
                          11        12        13
  11        2S          0.06687
  12 3   H  1S         -0.04894   0.22236
  13        2S         -0.02133   0.10879   0.06687
    Full Mulliken population analysis:
                           1         2         3         4         5
   1 1   O  1S          2.08400
   2        2S         -0.04080   0.51135
   3        2PX         0.00000   0.00000   0.83453
   4        2PY         0.00000   0.00000   0.00000   0.52537
   5        2PZ         0.00000   0.00000   0.00000   0.00000   0.64454
   6        3S         -0.04703   0.43184   0.00000   0.00000   0.00000
   7        3PX         0.00000   0.00000   0.32740   0.00000   0.00000
   8        3PY         0.00000   0.00000   0.00000   0.12106   0.00000
   9        3PZ         0.00000   0.00000   0.00000   0.00000   0.22209
  10 2   H  1S         -0.00120   0.01945   0.00000   0.06105   0.03156
  11        2S          0.00163  -0.01508   0.00000   0.01825   0.01018
  12 3   H  1S         -0.00120   0.01945   0.00000   0.06105   0.03156
  13        2S          0.00163  -0.01508   0.00000   0.01825   0.01018
                           6         7         8         9        10
   6        3S          0.67801
   7        3PX         0.00000   0.51067
   8        3PY         0.00000   0.00000   0.11090
   9        3PZ         0.00000   0.00000   0.00000   0.30628
  10 2   H  1S          0.01408   0.00000   0.05882   0.04320   0.22236
  11        2S         -0.05127   0.00000   0.02743   0.02333   0.07161
  12 3   H  1S          0.01408   0.00000   0.05882   0.04320  -0.00241
  13        2S         -0.05127   0.00000   0.02743   0.02333  -0.00997
                          11        12        13
  11        2S          0.06687
  12 3   H  1S         -0.00997   0.22236
  13        2S         -0.01037   0.07161   0.06687
     Gross orbital populations:
                           1
   1 1   O  1S          1.99703
   2        2S          0.91113
   3        2PX         1.16193
   4        2PY         0.80503
   5        2PZ         0.95011
   6        3S          0.98844
   7        3PX         0.83807
   8        3PY         0.40446
   9        3PZ         0.66144
  10 2   H  1S          0.50856
  11        2S          0.13262
  12 3   H  1S          0.50856
  13        2S          0.13262
          Condensed to atoms (all electrons):
              1          2          3
     1  O    8.234748   0.241444   0.241444
     2  H    0.241444   0.432461  -0.032723
     3  H    0.241444  -0.032723   0.432461
 Mulliken atomic charges:
              1
     1  O   -0.717635
     2  H    0.358818
     3  H    0.358818
 Sum of Mulliken atomic charges =   0.00000
 Mulliken charges with hydrogens summed into heavy atoms:
              1
     1  O    0.000000
 Sum of Mulliken charges with hydrogens summed into heavy atoms =   0.00000
 Electronic spatial extent (au):  <R**2>=             19.3935
 Charge=              0.0000 electrons
 Dipole moment (field-independent basis, Debye):
    X=              0.0000    Y=              0.0000    Z=             -2.3989  Tot=              2.3989
 Quadrupole moment (field-independent basis, Debye-Ang):
   XX=             -7.2019   YY=             -4.1162   ZZ=             -6.2440
   XY=              0.0000   XZ=              0.0000   YZ=              0.0000
 Traceless Quadrupole moment (field-independent basis, Debye-Ang):
   XX=             -1.3479   YY=              1.7379   ZZ=             -0.3900
   XY=              0.0000   XZ=              0.0000   YZ=              0.0000
 Octapole moment (field-independent basis, Debye-Ang**2):
  XXX=              0.0000  YYY=              0.0000  ZZZ=             -1.2792  XYY=              0.0000
  XXY=              0.0000  XXZ=             -0.3662  XZZ=              0.0000  YZZ=              0.0000
  YYZ=             -1.1809  XYZ=              0.0000
 Hexadecapole moment (field-independent basis, Debye-Ang**3):
 XXXX=             -5.1967 YYYY=             -6.0932 ZZZZ=             -6.3287 XXXY=              0.0000
 XXXZ=              0.0000 YYYX=              0.0000 YYYZ=              0.0000 ZZZX=              0.0000
 ZZZY=              0.0000 XXYY=             -2.1384 XXZZ=             -1.9619 YYZZ=             -1.8121
 XXYZ=              0.0000 YYXZ=              0.0000 ZZXY=              0.0000
 N-N= 9.009528755508D+00 E-N=-1.987525123579D+02  KE= 7.600203611967D+01
 Symmetry A1   KE= 6.788563397413D+01
 Symmetry A2   KE= 0.000000000000D+00
 Symmetry B1   KE= 4.607517974461D+00
 Symmetry B2   KE= 3.508884171082D+00
 Orbital energies and kinetic energies (alpha):
                                 1                 2
   1         (A1)--O         -19.133594         29.124780
   2         (A1)--O          -1.006368          2.595002
   3         (B2)--O          -0.529423          1.754442
   4         (A1)--O          -0.348618          2.223035
   5         (B1)--O          -0.289609          2.303759
   6         (A1)--V           0.052771          1.168769
   7         (B2)--V           0.142366          1.286400
   8         (B2)--V           0.821850          2.288298
   9         (A1)--V           0.851013          3.284229
  10         (B1)--V           0.890520          3.545430
  11         (A1)--V           0.944689          3.080156
  12         (B2)--V           1.071148          3.613989
  13         (A1)--V           1.408753          3.685141
 Total kinetic energy from orbitals= 7.600203611967D+01
 ******************************Gaussian NBO Version 3.1******************************
             N A T U R A L   A T O M I C   O R B I T A L   A N D
          N A T U R A L   B O N D   O R B I T A L   A N A L Y S I S
 ******************************Gaussian NBO Version 3.1******************************
       /RESON  / : Allow strongly delocalized NBO set

 Analyzing the SCF density

 Job title: H20_M                                                           

 Storage needed:       613 in NPA,       733 in NBO (1342177217 available)


 NATURAL POPULATIONS:  Natural atomic orbital occupancies 
                                                          
   NAO  Atom  No  lang   Type(AO)    Occupancy      Energy
 ----------------------------------------------------------
     1    O    1  S      Cor( 1S)     1.99986     -18.98314
     2    O    1  S      Val( 2S)     1.77476      -0.88808
     3    O    1  S      Ryd( 3S)     0.00203       1.34971
     4    O    1  px     Val( 2p)     1.99923      -0.28915
     5    O    1  px     Ryd( 3p)     0.00077       0.89007
     6    O    1  py     Val( 2p)     1.44239      -0.25758
     7    O    1  py     Ryd( 3p)     0.00280       1.04651
     8    O    1  pz     Val( 2p)     1.71296      -0.28513
     9    O    1  pz     Ryd( 3p)     0.00057       0.93471

    10    H    2  S      Val( 1S)     0.53015       0.12011
    11    H    2  S      Ryd( 2S)     0.00217       0.55868

    12    H    3  S      Val( 1S)     0.53015       0.12011
    13    H    3  S      Ryd( 2S)     0.00217       0.55868


 Summary of Natural Population Analysis:                  
                                                          
                                       Natural Population 
                Natural  -----------------------------------------------
    Atom  No    Charge         Core      Valence    Rydberg      Total
 -----------------------------------------------------------------------
      O    1   -0.93536      1.99986     6.92934    0.00617     8.93536
      H    2    0.46768      0.00000     0.53015    0.00217     0.53232
      H    3    0.46768      0.00000     0.53015    0.00217     0.53232
 =======================================================================
   * Total *    0.00000      1.99986     7.98963    0.01051    10.00000

                                 Natural Population      
 --------------------------------------------------------
   Core                       1.99986 ( 99.9928% of   2)
   Valence                    7.98963 ( 99.8704% of   8)
   Natural Minimal Basis      9.98949 ( 99.8949% of  10)
   Natural Rydberg Basis      0.01051 (  0.1051% of  10)
 --------------------------------------------------------

    Atom  No          Natural Electron Configuration
 ----------------------------------------------------------------------------
      O    1      [core]2S( 1.77)2p( 5.15)
      H    2            1S( 0.53)
      H    3            1S( 0.53)


 NATURAL BOND ORBITAL ANALYSIS:

                       Occupancies       Lewis Structure    Low   High
           Occ.    -------------------  -----------------   occ   occ
  Cycle   Thresh.   Lewis   Non-Lewis     CR  BD  3C  LP    (L)   (NL)   Dev
 =============================================================================
   1(1)    1.90     9.99491   0.00509      1   2   0   2     0      0    0.00
 -----------------------------------------------------------------------------

 Structure accepted: No low occupancy Lewis orbitals

 --------------------------------------------------------
   Core                      1.99986 ( 99.993% of   2)
   Valence Lewis             7.99505 ( 99.938% of   8)
  ==================       ============================
   Total Lewis               9.99491 ( 99.949% of  10)
  -----------------------------------------------------
   Valence non-Lewis         0.00074 (  0.007% of  10)
   Rydberg non-Lewis         0.00435 (  0.043% of  10)
  ==================       ============================
   Total non-Lewis           0.00509 (  0.051% of  10)
 --------------------------------------------------------


       (Occupancy)   Bond orbital/ Coefficients/ Hybrids
 ---------------------------------------------------------------------------------
     1. (1.99896) BD ( 1) O   1 - H   2  
                ( 73.49%)   0.8573* O   1 s( 22.06%)p 3.53( 77.94%)
                                            0.0001  0.4692  0.0207  0.0000  0.0000
                                            0.7064  0.0311 -0.5286  0.0013
                ( 26.51%)   0.5149* H   2 s(100.00%)
                                            1.0000 -0.0017
     2. (1.99896) BD ( 1) O   1 - H   3  
                ( 73.49%)   0.8573* O   1 s( 22.06%)p 3.53( 77.94%)
                                           -0.0001 -0.4692 -0.0207  0.0000  0.0000
                                            0.7064  0.0311  0.5286 -0.0013
                ( 26.51%)   0.5149* H   3 s(100.00%)
                                           -1.0000  0.0017
     3. (1.99986) CR ( 1) O   1           s(100.00%)
                                            1.0000 -0.0002  0.0000  0.0000  0.0000
                                            0.0000  0.0000  0.0000  0.0000
     4. (2.00000) LP ( 1) O   1           s(  0.00%)p 1.00(100.00%)
                                            0.0000  0.0000  0.0000  0.9998 -0.0196
                                            0.0000  0.0000  0.0000  0.0000
     5. (1.99714) LP ( 2) O   1           s( 56.00%)p 0.79( 44.00%)
                                            0.0002  0.7481 -0.0194  0.0000  0.0000
                                            0.0000  0.0000  0.6631 -0.0168
     6. (0.00000) RY*( 1) O   1           s( 99.88%)p 0.00(  0.12%)
     7. (0.00000) RY*( 2) O   1           s(  0.00%)p 1.00(100.00%)
     8. (0.00000) RY*( 3) O   1           s(  0.00%)p 1.00(100.00%)
     9. (0.00000) RY*( 4) O   1           s(  0.01%)p99.99( 99.99%)
    10. (0.00217) RY*( 1) H   2           s(100.00%)
                                            0.0017  1.0000
    11. (0.00217) RY*( 1) H   3           s(100.00%)
                                            0.0017  1.0000
    12. (0.00037) BD*( 1) O   1 - H   2  
                ( 26.51%)   0.5149* O   1 s( 22.06%)p 3.53( 77.94%)
                                           -0.0001 -0.4692 -0.0207  0.0000  0.0000
                                           -0.7064 -0.0311  0.5286 -0.0013
                ( 73.49%)  -0.8573* H   2 s(100.00%)
                                           -1.0000  0.0017
    13. (0.00037) BD*( 1) O   1 - H   3  
                ( 26.51%)   0.5149* O   1 s( 22.06%)p 3.53( 77.94%)
                                            0.0001  0.4692  0.0207  0.0000  0.0000
                                           -0.7064 -0.0311 -0.5286  0.0013
                ( 73.49%)  -0.8573* H   3 s(100.00%)
                                            1.0000 -0.0017


 NHO Directionality and "Bond Bending" (deviations from line of nuclear centers)

         [Thresholds for printing:  angular deviation  >  1.0 degree]
                                    hybrid p-character > 25.0%
                                    orbital occupancy  >  0.10e

                                Line of Centers        Hybrid 1              Hybrid 2
                                ---------------  -------------------   ------------------
                NBO               Theta   Phi    Theta   Phi    Dev    Theta   Phi    Dev
 ========================================================================================
     4. LP (   1) O   1             --     --     90.0    0.0   --       --     --    --
     5. LP (   2) O   1             --     --      0.0    0.0   --       --     --    --


 Second Order Perturbation Theory Analysis of Fock Matrix in NBO Basis

     Threshold for printing:   0.50 kcal/mol
                                                                              E(2)  E(j)-E(i) F(i,j)
         Donor NBO (i)                     Acceptor NBO (j)                 kcal/mol   a.u.    a.u. 
 ===================================================================================================

 within unit  1
   5. LP (   2) O   1                / 10. RY*(   1) H   2                    0.93    1.15    0.029
   5. LP (   2) O   1                / 11. RY*(   1) H   3                    0.93    1.15    0.029


 Natural Bond Orbitals (Summary):

                                                            Principal Delocalizations
           NBO                        Occupancy    Energy   (geminal,vicinal,remote)
 ====================================================================================
 Molecular unit  1  (H2O)
     1. BD (   1) O   1 - H   2          1.99896    -0.72059   
     2. BD (   1) O   1 - H   3          1.99896    -0.72059   
     3. CR (   1) O   1                  1.99986   -18.98259   
     4. LP (   1) O   1                  2.00000    -0.28961   
     5. LP (   2) O   1                  1.99714    -0.59085  10(v),11(v)
     6. RY*(   1) O   1                  0.00000     1.34683   
     7. RY*(   2) O   1                  0.00000     0.89052   
     8. RY*(   3) O   1                  0.00000     1.04627   
     9. RY*(   4) O   1                  0.00000     0.93516   
    10. RY*(   1) H   2                  0.00217     0.55766   
    11. RY*(   1) H   3                  0.00217     0.55766   
    12. BD*(   1) O   1 - H   2          0.00037     0.42282   
    13. BD*(   1) O   1 - H   3          0.00037     0.42282   
       -------------------------------
              Total Lewis    9.99491  ( 99.9491%)
        Valence non-Lewis    0.00074  (  0.0074%)
        Rydberg non-Lewis    0.00435  (  0.0435%)
       -------------------------------
            Total unit  1   10.00000  (100.0000%)
           Charge unit  1    0.00000
 1\1\GINC-COMPUTE-0-2\SP\RB3LYP\6-31G\H2O1\VIJI\05-Jun-2025\0\\# b3lyp/
 6-31g pop=(full,nbo) geom=connectivity scf=xqc gfinput\\H20_M\\0,1\O,0
 ,0.,0.,0.11435\H,0,0.,0.790999,-0.4574\H,0,0.,-0.790999,-0.4574\\Versi
 on=AM64L-G09RevB.01\State=1-A1\HF=-76.3861166\RMSD=6.211e-09\Dipole=0.
 ,0.,-0.9438098\Quadrupole=-1.0021142,1.2920724,-0.2899582,0.,0.,0.\PG=
 C02V [C2(O1),SGV(H2)]\\@


 THOSE WHO ARE UNABLE TO LEARN FROM PAST MEETINGS
 ARE CONDEMNED TO REPEAT THEM.
 Job cpu time:  0 days  0 hours  0 minutes 15.7 seconds.
 File lengths (MBytes):  RWF=      5 Int=      0 D2E=      0 Chk=      2 Scr=      1
 Normal termination of Gaussian 09 at Thu Jun  5 17:41:39 2025.
