 Entering Gaussian System, Link 0=g09
 Input=WaC21-cp.gjf
 Output=WaC21-cp.log
 Initial command:
 /share/apps/g09/l1.exe /scratch/Gau-4786.inp -scrdir=/scratch/
 Entering Link 1 = /share/apps/g09/l1.exe PID=      4787.
  
 Copyright (c) 1988,1990,1992,1993,1995,1998,2003,2009,2010,
            Gaussian, Inc.  All Rights Reserved.
  
 This is part of the Gaussian(R) 09 program.  It is based on
 the Gaussian(R) 03 system (copyright 2003, Gaussian, Inc.),
 the Gaussian(R) 98 system (copyright 1998, Gaussian, Inc.),
 the Gaussian(R) 94 system (copyright 1995, Gaussian, Inc.),
 the Gaussian 92(TM) system (copyright 1992, Gaussian, Inc.),
 the Gaussian 90(TM) system (copyright 1990, Gaussian, Inc.),
 the Gaussian 88(TM) system (copyright 1988, Gaussian, Inc.),
 the Gaussian 86(TM) system (copyright 1986, Carnegie Mellon
 University), and the Gaussian 82(TM) system (copyright 1983,
 Carnegie Mellon University). Gaussian is a federally registered
 trademark of Gaussian, Inc.
  
 This software contains proprietary and confidential information,
 including trade secrets, belonging to Gaussian, Inc.
  
 This software is provided under written license and may be
 used, copied, transmitted, or stored only in accord with that
 written license.
  
 The following legend is applicable only to US Government
 contracts under FAR:
  
                    RESTRICTED RIGHTS LEGEND
  
 Use, reproduction and disclosure by the US Government is
 subject to restrictions as set forth in subparagraphs (a)
 and (c) of the Commercial Computer Software - Restricted
 Rights clause in FAR 52.227-19.
  
 Gaussian, Inc.
 340 Quinnipiac St., Bldg. 40, Wallingford CT 06492
  
  
 ---------------------------------------------------------------
 Warning -- This program may not be used in any manner that
 competes with the business of Gaussian, Inc. or will provide
 assistance to any competitor of Gaussian, Inc.  The licensee
 of this program is prohibited from giving any competitor of
 Gaussian, Inc. access to this program.  By using this program,
 the user acknowledges that Gaussian, Inc. is engaged in the
 business of creating and licensing software in the field of
 computational chemistry and represents and warrants to the
 licensee that it is not a competitor of Gaussian, Inc. and that
 it will not use this program in any manner prohibited above.
 ---------------------------------------------------------------
  

 Cite this work as:
 Gaussian 09, Revision B.01,
 M. J. Frisch, G. W. Trucks, H. B. Schlegel, G. E. Scuseria, 
 M. A. Robb, J. R. Cheeseman, G. Scalmani, V. Barone, B. Mennucci, 
 G. A. Petersson, H. Nakatsuji, M. Caricato, X. Li, H. P. Hratchian, 
 A. F. Izmaylov, J. Bloino, G. Zheng, J. L. Sonnenberg, M. Hada, 
 M. Ehara, K. Toyota, R. Fukuda, J. Hasegawa, M. Ishida, T. Nakajima, 
 Y. Honda, O. Kitao, H. Nakai, T. Vreven, J. A. Montgomery, Jr., 
 J. E. Peralta, F. Ogliaro, M. Bearpark, J. J. Heyd, E. Brothers, 
 K. N. Kudin, V. N. Staroverov, T. Keith, R. Kobayashi, J. Normand, 
 K. Raghavachari, A. Rendell, J. C. Burant, S. S. Iyengar, J. Tomasi, 
 M. Cossi, N. Rega, J. M. Millam, M. Klene, J. E. Knox, J. B. Cross, 
 V. Bakken, C. Adamo, J. Jaramillo, R. Gomperts, R. E. Stratmann, 
 O. Yazyev, A. J. Austin, R. Cammi, C. Pomelli, J. W. Ochterski, 
 R. L. Martin, K. Morokuma, V. G. Zakrzewski, G. A. Voth, 
 P. Salvador, J. J. Dannenberg, S. Dapprich, A. D. Daniels, 
 O. Farkas, J. B. Foresman, J. V. Ortiz, J. Cioslowski, 
 and D. J. Fox, Gaussian, Inc., Wallingford CT, 2010.
 
 ******************************************
 Gaussian 09:  AM64L-G09RevB.01 12-Aug-2010
                11-Jun-2025 
 ******************************************
 %nprocshared=8
 Will use up to    8 processors via shared memory.
 %mem=20GB
 ---------------------------------------------------------
 # b3lyp/6-31g(d) geom=connectivity counterpoise=2 scf=xqc
 ---------------------------------------------------------
 1/38=1,57=2,62=2/1;
 2/12=2,17=6,18=5,40=1/2;
 1/38=1,53=5172,62=2/22;
 3/5=1,6=6,7=1,11=2,16=1,25=1,30=1,74=-5/1,2,3;
 4//1;
 5/5=2,8=3,13=1,38=5/2,8;
 6/7=2,8=2,9=2,10=2,28=1/1;
 1/53=4052,62=2,63=1/22;
 3/5=7,6=11,7=1,11=2,16=1,25=1,30=1,74=-5,82=7/1,2,3;
 4//1;
 5/5=2,8=3,13=1,38=5/2,8;
 6/7=2,8=2,9=2,10=2,28=1/1;
 1/53=3042,62=2,63=2/22;
 3/5=7,6=11,7=1,11=2,16=1,25=1,30=1,74=-5,82=7/1,2,3;
 4//1;
 5/5=2,8=3,13=1,38=5/2,8;
 6/7=2,8=2,9=2,10=2,28=1/1;
 1/53=2032,62=2,63=3/22;
 3/5=7,6=11,7=1,11=2,16=1,25=1,30=1,74=-5,82=7/1,2,3;
 4//1;
 5/5=2,8=3,13=1,38=5/2,8;
 6/7=2,8=2,9=2,10=2,28=1/1;
 1/53=1022,62=2,63=4/22;
 3/5=7,6=11,7=1,11=2,16=1,25=1,30=1,74=-5,82=7/1,2,3;
 4//1;
 5/5=2,8=3,13=1,38=5/2,8;
 6/7=2,8=2,9=2,10=2,28=1/1;
 1/53=5014,62=2,63=5/22;
 99/5=1,9=1/99;
 --------
 Wac_coup
 --------
 Symbolic Z-matrix:
 Charge =  0 Multiplicity = 1 in supermolecule
 Charge =  0 Multiplicity = 1 in fragment  1.
 Charge =  0 Multiplicity = 1 in fragment  2.
 C(Fragment=1)        -1.34084  -0.49047  -0.19833 
 C(Fragment=1)        -0.24517  -1.40689  -0.20003 
 C(Fragment=1)        -1.09559   0.9171   -0.19856 
 C(Fragment=1)         1.09573  -0.9163   -0.19883 
 C(Fragment=1)         0.2453    1.40766  -0.1993 
 C(Fragment=1)         1.34097   0.49127  -0.19788 
 C(Fragment=1)        -2.67638  -0.9791   -0.19884 
 C(Fragment=1)        -0.48945  -2.80712  -0.2026 
 C(Fragment=1)        -2.18648   1.82879  -0.19877 
 C(Fragment=1)         2.18663  -1.82801  -0.19929 
 C(Fragment=1)         0.48958   2.80789  -0.20117 
 C(Fragment=1)         2.6765    0.97989  -0.19798 
 C(Fragment=1)        -3.74855  -0.04175  -0.19744 
 C(Fragment=1)        -1.83716  -3.26709  -0.2033 
 C(Fragment=1)        -2.89026  -2.38711  -0.20114 
 C(Fragment=1)         3.51269  -1.30939  -0.19754 
 C(Fragment=1)         1.83729   3.26786  -0.20145 
 C(Fragment=1)        -1.91136   3.22589  -0.20007 
 C(Fragment=1)         3.74867   0.04254  -0.19686 
 C(Fragment=1)        -0.62266   3.6972   -0.20148 
 C(Fragment=1)        -3.51254   1.31018  -0.19746 
 C(Fragment=1)         2.89039   2.38789  -0.19957 
 C(Fragment=1)         0.6228   -3.69643  -0.20314 
 C(Fragment=1)         1.91149  -3.22512  -0.20128 
 H(Fragment=1)        -4.76869  -0.41785  -0.19651 
 H(Fragment=1)        -2.02134  -4.33863  -0.20423 
 H(Fragment=1)        -3.9121   -2.75852  -0.2008 
 H(Fragment=1)         4.7688    0.41864  -0.1956 
 H(Fragment=1)         2.02146   4.3394   -0.20182 
 H(Fragment=1)        -4.34497   2.00955  -0.19586 
 H(Fragment=1)        -0.43336   4.76776  -0.20153 
 H(Fragment=1)         4.34512  -2.00876  -0.19613 
 H(Fragment=1)         0.43351  -4.76699  -0.20372 
 H(Fragment=1)        -2.74734   3.92111  -0.19917 
 H(Fragment=1)         3.91223   2.75931  -0.1989 
 H(Fragment=1)         2.74748  -3.92033  -0.20056 
 O(Fragment=2)        -0.00118  -0.00565   3.23539 
 H(Fragment=2)        -0.75386  -0.09661   2.63225 
 H(Fragment=2)         0.75272   0.08079   2.6331 
 
                          Input orientation:                          
 ---------------------------------------------------------------------
 Center     Atomic      Atomic             Coordinates (Angstroms)
 Number     Number       Type             X           Y           Z
 ---------------------------------------------------------------------
      1          6           0       -1.340843   -0.490472   -0.198325
      2          6           0       -0.245170   -1.406887   -0.200028
      3          6           0       -1.095585    0.917096   -0.198555
      4          6           0        1.095734   -0.916302   -0.198827
      5          6           0        0.245301    1.407664   -0.199299
      6          6           0        1.340971    0.491272   -0.197875
      7          6           0       -2.676378   -0.979101   -0.198841
      8          6           0       -0.489446   -2.807118   -0.202599
      9          6           0       -2.186476    1.828787   -0.198769
     10          6           0        2.186628   -1.828010   -0.199289
     11          6           0        0.489577    2.807886   -0.201173
     12          6           0        2.676502    0.979891   -0.197980
     13          6           0       -3.748552   -0.041749   -0.197435
     14          6           0       -1.837162   -3.267085   -0.203303
     15          6           0       -2.890255   -2.387107   -0.201138
     16          6           0        3.512693   -1.309394   -0.197536
     17          6           0        1.837289    3.267859   -0.201447
     18          6           0       -1.911355    3.225893   -0.200070
     19          6           0        3.748674    0.042538   -0.196856
     20          6           0       -0.622663    3.697200   -0.201483
     21          6           0       -3.512543    1.310175   -0.197463
     22          6           0        2.890387    2.387893   -0.199568
     23          6           0        0.622802   -3.696427   -0.203136
     24          6           0        1.911494   -3.225117   -0.201276
     25          1           0       -4.768685   -0.417847   -0.196512
     26          1           0       -2.021339   -4.338626   -0.204228
     27          1           0       -3.912102   -2.758524   -0.200801
     28          1           0        4.768804    0.418642   -0.195603
     29          1           0        2.021459    4.339403   -0.201820
     30          1           0       -4.344966    2.009552   -0.195864
     31          1           0       -0.433363    4.767759   -0.201526
     32          1           0        4.345123   -2.008763   -0.196134
     33          1           0        0.433507   -4.766985   -0.203719
     34          1           0       -2.747340    3.921108   -0.199172
     35          1           0        3.912233    2.759312   -0.198901
     36          1           0        2.747479   -3.920334   -0.200564
     37          8           0       -0.001177   -0.005648    3.235390
     38          1           0       -0.753863   -0.096612    2.632253
     39          1           0        0.752717    0.080790    2.633100
 ---------------------------------------------------------------------
                    Distance matrix (angstroms):
                    1          2          3          4          5
     1  C    0.000000
     2  C    1.428397   0.000000
     3  C    1.428775   2.474693   0.000000
     4  C    2.473507   1.427830   2.857136   0.000000
     5  C    2.473616   2.856967   1.427807   2.474683   0.000000
     6  C    2.855862   2.473632   2.473486   1.428778   1.428380
     7  C    1.422115   2.468557   2.468698   3.772635   3.772646
     8  C    2.468146   1.421381   3.773220   2.467386   4.278347
     9  C    2.468615   3.773361   1.421697   4.278833   2.467972
    10  C    3.772540   2.467992   4.278847   1.421711   3.773372
    11  C    3.772216   4.278337   2.467353   3.773196   1.421371
    12  C    4.277970   3.772649   3.772610   2.468679   2.468548
    13  C    2.449166   3.759959   2.820925   4.922596   4.248725
    14  C    2.820627   2.448425   4.249392   3.758734   5.117611
    15  C    2.449063   2.820870   3.760134   4.248692   4.922601
    16  C    4.922138   3.759128   5.117957   2.448717   4.249501
    17  C    4.921949   5.117606   3.758703   4.249366   2.448419
    18  C    3.759901   4.923294   2.448679   5.118629   2.820837
    19  C    5.117351   4.248721   4.922570   2.820899   3.759946
    20  C    4.248810   5.118028   2.820043   4.923139   2.448539
    21  C    2.821101   4.249489   2.448714   5.117951   3.759109
    22  C    5.117450   4.922608   4.248672   3.760118   2.820874
    23  C    3.759531   2.448546   4.923156   2.820067   5.118033
    24  C    4.249234   2.820844   5.118638   2.448693   4.923298
    25  H    3.428612   4.630378   3.908163   5.885565   5.335968
    26  H    3.907864   3.427811   5.336634   4.629090   6.177178
    27  H    3.428621   3.908109   4.630654   5.335935   5.885671
    28  H    6.176915   5.335964   5.885535   3.908136   4.630363
    29  H    5.884962   6.177172   4.629056   5.336610   3.427804
    30  H    3.908309   5.336703   3.428111   6.177528   4.629561
    31  H    5.335965   6.177513   3.907192   5.886144   3.427948
    32  H    5.885187   4.629585   6.177537   3.428120   5.336715
    33  H    4.630001   3.427955   5.886164   3.907215   6.177518
    34  H    4.630364   5.886288   3.428175   6.178167   3.908107
    35  H    6.177047   5.885679   5.335916   4.630638   3.908112
    36  H    5.336510   3.908115   6.178177   3.428188   5.886294
    37  O    3.717547   3.718212   3.720371   3.718380   3.722270
    38  H    2.917506   3.161867   3.026194   3.479643   3.358402
    39  H    3.567394   3.351951   3.483375   3.021864   3.168683
                    6          7          8          9         10
     6  C    0.000000
     7  C    4.277977   0.000000
     8  C    3.772244   2.850321   0.000000
     9  C    3.772510   2.850305   4.936754   0.000000
    10  C    2.468645   4.936545   2.849568   5.700544   0.000000
    11  C    2.468113   4.936046   5.699716   2.849544   4.936752
    12  C    1.422108   5.700085   4.936060   4.936515   2.850313
    13  C    5.117358   1.424145   4.274233   2.437004   6.198152
    14  C    4.921972   2.437042   1.424047   5.107832   4.273387
    15  C    5.117455   1.424159   2.437272   4.274234   5.107576
    16  C    2.821130   6.197878   4.273209   6.506052   1.423873
    17  C    2.820599   6.197569   6.505309   4.273362   5.107830
    18  C    4.249209   4.274019   6.198311   1.423938   6.506566
    19  C    2.449163   6.505770   5.107077   6.198120   2.436995
    20  C    3.759501   5.107401   6.505682   2.436490   6.198392
    21  C    4.922113   2.437203   5.107959   1.423873   6.506056
    22  C    2.449054   6.505807   6.197695   5.107557   4.274239
    23  C    4.248837   4.274163   1.424067   6.198391   2.436503
    24  C    3.759928   5.108147   2.437055   6.506559   1.423942
    25  H    6.176924   2.166278   4.901075   3.422743   7.096826
    26  H    5.884988   3.422793   2.166152   6.169626   4.900021
    27  H    6.177051   2.166417   3.423001   4.901144   6.169308
    28  H    3.428603   7.575251   6.168855   7.096791   3.422732
    29  H    3.907837   7.096208   7.574788   4.899992   6.169625
    30  H    5.885156   3.422900   6.169716   2.166048   7.575527
    31  H    4.629969   6.169078   7.575085   3.422129   7.097079
    32  H    3.908338   7.096597   4.900048   7.575525   2.166052
    33  H    5.335990   4.900967   2.166315   7.097080   3.422138
    34  H    5.336484   4.900723   7.096980   2.166189   7.576041
    35  H    3.428614   7.575324   7.096473   6.169289   4.901146
    36  H    4.630393   6.170015   3.423001   7.576035   2.166189
    37  O    3.719624   4.460746   4.461660   4.464766   4.461448
    38  H    3.569813   3.534111   3.931049   3.711365   4.434169
    39  H    2.920438   4.571865   4.233695   4.440026   3.704328
                   11         12         13         14         15
    11  C    0.000000
    12  C    2.850301   0.000000
    13  C    5.107071   6.505772   0.000000
    14  C    6.505305   6.197580   3.749165   0.000000
    15  C    6.197678   6.505803   2.497477   1.372360   0.000000
    16  C    5.107958   2.437220   7.371065   5.696800   6.493013
    17  C    1.424045   2.437024   6.492699   7.497139   7.370774
    18  C    2.437049   5.108127   3.748704   6.493403   5.697720
    19  C    4.274211   1.424143   7.497700   6.492704   7.069552
    20  C    1.424064   4.274140   4.873493   7.069390   6.493132
    21  C    4.273186   6.197852   1.372370   4.874243   3.749287
    22  C    2.437270   1.424156   7.069560   7.370788   7.497763
    23  C    6.505678   5.107412   5.697845   2.497150   3.749119
    24  C    6.198304   4.274031   6.493841   3.748891   4.874326
    25  H    6.168849   7.575255   1.087254   4.088035   2.721490
    26  H    7.574783   7.096222   4.631033   1.087254   2.136224
    27  H    7.096457   7.575319   2.721695   2.136356   1.087254
    28  H    4.901051   2.166272   8.529790   7.564617   8.156803
    29  H    2.166150   3.422779   7.244828   8.529221   8.328918
    30  H    4.900017   7.096564   2.136246   5.842263   4.631071
    31  H    2.166315   4.900940   5.841392   8.156554   7.564947
    32  H    6.169714   3.422916   8.329269   6.309047   7.245265
    33  H    7.575079   6.169088   6.310112   2.721330   4.087936
    34  H    3.422996   6.169994   4.087379   7.245589   6.309834
    35  H    3.423001   2.166419   8.156811   8.329047   8.529917
    36  H    7.096976   4.900740   7.565834   4.630948   5.842502
    37  O    4.468420   4.464222   5.082166   5.082561   5.082110
    38  H    4.243884   4.575640   4.120474   4.389284   4.223582
    39  H    3.942004   3.538975   5.318681   5.095186   5.233991
                   16         17         18         19         20
    16  C    0.000000
    17  C    4.874242   0.000000
    18  C    7.070299   3.748879   0.000000
    19  C    1.372373   3.749148   6.493819   0.000000
    20  C    6.493625   2.497138   1.372173   5.697821   0.000000
    21  C    7.497738   5.696775   2.496755   7.371036   3.748241
    22  C    3.749293   1.372355   4.874317   2.497470   3.749108
    23  C    3.748257   7.069389   7.371599   4.873497   7.497793
    24  C    2.496767   6.493400   7.498647   3.748709   7.371596
    25  H    8.329230   7.564611   4.630463   8.529792   5.841501
    26  H    6.308867   8.529222   7.565320   7.244840   8.156642
    27  H    7.564891   8.329033   6.310011   8.156804   7.245466
    28  H    2.136335   4.088013   7.246047   1.087254   6.310063
    29  H    5.842320   1.087256   4.087412   4.631020   2.720994
    30  H    8.529842   6.309013   2.720655   8.329235   4.087019
    31  H    7.245907   2.721316   2.135840   6.310085   1.087167
    32  H    1.087225   5.842260   8.157521   2.136256   7.565510
    33  H    4.629942   8.156551   8.329735   5.841395   8.529826
    34  H    8.157583   4.630935   1.087288   7.565812   2.136444
    35  H    4.088276   2.136357   5.842249   2.721694   4.630866
    36  H    2.720766   7.245589   8.530727   4.087390   8.329747
    37  O    5.082521   5.089956   5.088617   5.083701   5.090130
    38  H    5.261373   5.105251   4.516733   5.319404   4.737118
    39  H    4.190773   4.400950   5.001580   4.121392   4.796348
                   21         22         23         24         25
    21  C    0.000000
    22  C    6.492996   0.000000
    23  C    6.493626   6.493143   0.000000
    24  C    7.070295   5.697729   1.372175   0.000000
    25  H    2.136341   8.156811   6.310092   7.246073   0.000000
    26  H    5.842319   8.328933   2.721011   4.087430   4.787534
    27  H    4.088272   8.529916   4.630877   5.842258   2.492493
    28  H    8.329198   2.721473   5.841505   4.630468   9.574101
    29  H    6.308837   2.136219   8.156642   7.565319   8.290809
    30  H    1.087225   7.245239   7.565512   8.157517   2.464103
    31  H    4.629930   4.087919   8.529826   8.329731   6.759109
    32  H    8.529846   4.631075   4.087044   2.720679   9.251622
    33  H    7.245911   7.564956   1.087165   2.135839   6.780697
    34  H    2.720755   5.842492   8.329749   8.530725   4.786687
    35  H    7.564873   1.087254   7.245477   6.310020   9.244062
    36  H    8.157580   6.309846   2.136444   1.087289   8.292174
    37  O    5.083853   5.088135   5.082781   5.082712   5.888717
    38  H    4.194837   5.241425   4.784695   4.992049   4.921778
    39  H    5.264591   4.232773   4.725302   4.506159   6.224245
                   26         27         28         29         30
    26  H    0.000000
    27  H    2.464086   0.000000
    28  H    8.290821   9.244054   0.000000
    29  H    9.573526   9.251363   4.787516   0.000000
    30  H    6.760080   4.787687   9.251584   6.779352   0.000000
    31  H    9.243805   8.291355   6.780663   2.491915   4.786270
    32  H    6.779393   8.291196   2.464102   6.760078   9.574158
    33  H    2.491939   4.787300   6.759112   9.243803   8.291883
    34  H    8.291581   6.780425   8.292147   4.787110   2.491278
    35  H    9.251380   9.574275   2.492481   2.464087   8.291169
    36  H    4.787129   6.760164   4.786699   8.291584   9.244801
    37  O    5.889544   5.889064   5.891049   5.897876   5.890928
    38  H    5.258023   5.008637   6.225922   5.950850   5.032911
    39  H    5.939449   6.152498   4.923887   5.270888   6.140809
                   31         32         33         34         35
    31  H    0.000000
    32  H    8.291876   0.000000
    33  H    9.574070   4.786291   0.000000
    34  H    2.464003   9.244805   9.252068   0.000000
    35  H    4.787282   4.787686   8.291363   6.760154   0.000000
    36  H    9.252066   2.491303   2.464000   9.575033   6.780437
    37  O    5.897846   5.888816   5.889546   5.895510   5.895264
    38  H    5.638717   6.136428   5.591509   5.304054   6.159885
    39  H    5.604424   5.027542   5.625865   5.917787   5.017694
                   36         37         38         39
    36  H    0.000000
    37  O    5.889453   0.000000
    38  H    5.908054   0.968806   0.000000
    39  H    5.293177   0.968804   1.516989   0.000000
 Stoichiometry    C24H14O
 Framework group  C1[X(C24H14O)]
 Deg. of freedom   111
 Full point group                 C1      NOp   1
 Largest Abelian subgroup         C1      NOp   1
 Largest concise Abelian subgroup C1      NOp   1
                         Standard orientation:                         
 ---------------------------------------------------------------------
 Center     Atomic      Atomic             Coordinates (Angstroms)
 Number     Number       Type             X           Y           Z
 ---------------------------------------------------------------------
      1          6           0       -1.340846   -0.490464   -0.198325
      2          6           0       -0.245178   -1.406886   -0.200028
      3          6           0       -1.095580    0.917102   -0.198555
      4          6           0        1.095729   -0.916308   -0.198827
      5          6           0        0.245309    1.407663   -0.199299
      6          6           0        1.340974    0.491264   -0.197875
      7          6           0       -2.676384   -0.979085   -0.198841
      8          6           0       -0.489462   -2.807115   -0.202599
      9          6           0       -2.186465    1.828800   -0.198769
     10          6           0        2.186617   -1.828023   -0.199289
     11          6           0        0.489593    2.807883   -0.201173
     12          6           0        2.676508    0.979875   -0.197980
     13          6           0       -3.748552   -0.041727   -0.197435
     14          6           0       -1.837181   -3.267074   -0.203303
     15          6           0       -2.890269   -2.387090   -0.201138
     16          6           0        3.512685   -1.309414   -0.197536
     17          6           0        1.837308    3.267848   -0.201447
     18          6           0       -1.911336    3.225904   -0.200070
     19          6           0        3.748674    0.042516   -0.196856
     20          6           0       -0.622641    3.697204   -0.201483
     21          6           0       -3.512535    1.310195   -0.197463
     22          6           0        2.890401    2.387876   -0.199568
     23          6           0        0.622781   -3.696431   -0.203136
     24          6           0        1.911475   -3.225128   -0.201276
     25          1           0       -4.768687   -0.417819   -0.196512
     26          1           0       -2.021364   -4.338614   -0.204228
     27          1           0       -3.912118   -2.758501   -0.200801
     28          1           0        4.768806    0.418614   -0.195603
     29          1           0        2.021484    4.339391   -0.201820
     30          1           0       -4.344954    2.009577   -0.195864
     31          1           0       -0.433335    4.767762   -0.201526
     32          1           0        4.345111   -2.008788   -0.196134
     33          1           0        0.433479   -4.766988   -0.203719
     34          1           0       -2.747317    3.921124   -0.199172
     35          1           0        3.912249    2.759289   -0.198901
     36          1           0        2.747456   -3.920350   -0.200564
     37          8           0       -0.001177   -0.005648    3.235390
     38          1           0       -0.753864   -0.096608    2.632253
     39          1           0        0.752718    0.080786    2.633100
 ---------------------------------------------------------------------
 Rotational constants (GHZ):      0.2955830      0.2954116      0.1665801
 Standard basis: 6-31G(d) (6D, 7F)
 There are   403 symmetry adapted basis functions of A   symmetry.
 Integral buffers will be    131072 words long.
 Raffenetti 2 integral format.
 Two-electron integral symmetry is turned on.
   403 basis functions,   756 primitive gaussians,   403 cartesian basis functions
    83 alpha electrons       83 beta electrons
       nuclear repulsion energy      2022.2815030384 Hartrees.
 NAtoms=   39 NActive=   39 NUniq=   39 SFac= 1.00D+00 NAtFMM=   50 NAOKFM=F Big=F
 One-electron integrals computed using PRISM.
 NBasis=   403 RedAO= T  NBF=   403
 NBsUse=   403 1.00D-06 NBFU=   403
 Harris functional with IExCor=  402 diagonalized for initial guess.
 ExpMin= 1.61D-01 ExpMax= 5.48D+03 ExpMxC= 8.25D+02 IAcc=1 IRadAn=         1 AccDes= 0.00D+00
 HarFok:  IExCor=  402 AccDes= 0.00D+00 IRadAn=         1 IDoV= 1
 ScaDFX=  1.000000  1.000000  1.000000  1.000000
 FoFCou: FMM=F IPFlag=           0 FMFlag=      100000 FMFlg1=           0
         NFxFlg=           0 DoJE=T BraDBF=F KetDBF=T FulRan=T
         Omega=  0.000000  0.000000  1.000000  0.000000  0.000000 ICntrl=     500 IOpCl=  0
         NMat0=    1 NMatS0=    1 NMatT0=    0 NMatD0=    1 NMtDS0=    0 NMtDT0=    0
         I1Cent=           4 NGrid=           0.
 Petite list used in FoFCou.
 Initial guess orbital symmetries:
       Occupied  (A) (A) (A) (A) (A) (A) (A) (A) (A) (A) (A) (A)
                 (A) (A) (A) (A) (A) (A) (A) (A) (A) (A) (A) (A)
                 (A) (A) (A) (A) (A) (A) (A) (A) (A) (A) (A) (A)
                 (A) (A) (A) (A) (A) (A) (A) (A) (A) (A) (A) (A)
                 (A) (A) (A) (A) (A) (A) (A) (A) (A) (A) (A) (A)
                 (A) (A) (A) (A) (A) (A) (A) (A) (A) (A) (A) (A)
                 (A) (A) (A) (A) (A) (A) (A) (A) (A) (A) (A)
       Virtual   (A) (A) (A) (A) (A) (A) (A) (A) (A) (A) (A) (A)
                 (A) (A) (A) (A) (A) (A) (A) (A) (A) (A) (A) (A)
                 (A) (A) (A) (A) (A) (A) (A) (A) (A) (A) (A) (A)
                 (A) (A) (A) (A) (A) (A) (A) (A) (A) (A) (A) (A)
                 (A) (A) (A) (A) (A) (A) (A) (A) (A) (A) (A) (A)
                 (A) (A) (A) (A) (A) (A) (A) (A) (A) (A) (A) (A)
                 (A) (A) (A) (A) (A) (A) (A) (A) (A) (A) (A) (A)
                 (A) (A) (A) (A) (A) (A) (A) (A) (A) (A) (A) (A)
                 (A) (A) (A) (A) (A) (A) (A) (A) (A) (A) (A) (A)
                 (A) (A) (A) (A) (A) (A) (A) (A) (A) (A) (A) (A)
                 (A) (A) (A) (A) (A) (A) (A) (A) (A) (A) (A) (A)
                 (A) (A) (A) (A) (A) (A) (A) (A) (A) (A) (A) (A)
                 (A) (A) (A) (A) (A) (A) (A) (A) (A) (A) (A) (A)
                 (A) (A) (A) (A) (A) (A) (A) (A) (A) (A) (A) (A)
                 (A) (A) (A) (A) (A) (A) (A) (A) (A) (A) (A) (A)
                 (A) (A) (A) (A) (A) (A) (A) (A) (A) (A) (A) (A)
                 (A) (A) (A) (A) (A) (A) (A) (A) (A) (A) (A) (A)
                 (A) (A) (A) (A) (A) (A) (A) (A) (A) (A) (A) (A)
                 (A) (A) (A) (A) (A) (A) (A) (A) (A) (A) (A) (A)
                 (A) (A) (A) (A) (A) (A) (A) (A) (A) (A) (A) (A)
                 (A) (A) (A) (A) (A) (A) (A) (A) (A) (A) (A) (A)
                 (A) (A) (A) (A) (A) (A) (A) (A) (A) (A) (A) (A)
                 (A) (A) (A) (A) (A) (A) (A) (A) (A) (A) (A) (A)
                 (A) (A) (A) (A) (A) (A) (A) (A) (A) (A) (A) (A)
                 (A) (A) (A) (A) (A) (A) (A) (A) (A) (A) (A) (A)
                 (A) (A) (A) (A) (A) (A) (A) (A) (A) (A) (A) (A)
                 (A) (A) (A) (A) (A) (A) (A) (A)
 The electronic state of the initial guess is 1-A.
 Requested convergence on RMS density matrix=1.00D-08 within  64 cycles.
 Requested convergence on MAX density matrix=1.00D-06.
 Requested convergence on             energy=1.00D-06.
 No special actions if energy rises.
 Integral accuracy reduced to 1.0D-05 until final iterations.
 Initial convergence to 1.0D-05 achieved.  Increase integral accuracy.
 SCF Done:  E(RB3LYP) =  -998.309818015     A.U. after   14 cycles
             Convg  =    0.5183D-08             -V/T =  2.0095
 QCSCF skips out because SCF is already converged.

 **********************************************************************

            Population analysis using the SCF density.

 **********************************************************************

 Orbital symmetries:
       Occupied  (A) (A) (A) (A) (A) (A) (A) (A) (A) (A) (A) (A)
                 (A) (A) (A) (A) (A) (A) (A) (A) (A) (A) (A) (A)
                 (A) (A) (A) (A) (A) (A) (A) (A) (A) (A) (A) (A)
                 (A) (A) (A) (A) (A) (A) (A) (A) (A) (A) (A) (A)
                 (A) (A) (A) (A) (A) (A) (A) (A) (A) (A) (A) (A)
                 (A) (A) (A) (A) (A) (A) (A) (A) (A) (A) (A) (A)
                 (A) (A) (A) (A) (A) (A) (A) (A) (A) (A) (A)
       Virtual   (A) (A) (A) (A) (A) (A) (A) (A) (A) (A) (A) (A)
                 (A) (A) (A) (A) (A) (A) (A) (A) (A) (A) (A) (A)
                 (A) (A) (A) (A) (A) (A) (A) (A) (A) (A) (A) (A)
                 (A) (A) (A) (A) (A) (A) (A) (A) (A) (A) (A) (A)
                 (A) (A) (A) (A) (A) (A) (A) (A) (A) (A) (A) (A)
                 (A) (A) (A) (A) (A) (A) (A) (A) (A) (A) (A) (A)
                 (A) (A) (A) (A) (A) (A) (A) (A) (A) (A) (A) (A)
                 (A) (A) (A) (A) (A) (A) (A) (A) (A) (A) (A) (A)
                 (A) (A) (A) (A) (A) (A) (A) (A) (A) (A) (A) (A)
                 (A) (A) (A) (A) (A) (A) (A) (A) (A) (A) (A) (A)
                 (A) (A) (A) (A) (A) (A) (A) (A) (A) (A) (A) (A)
                 (A) (A) (A) (A) (A) (A) (A) (A) (A) (A) (A) (A)
                 (A) (A) (A) (A) (A) (A) (A) (A) (A) (A) (A) (A)
                 (A) (A) (A) (A) (A) (A) (A) (A) (A) (A) (A) (A)
                 (A) (A) (A) (A) (A) (A) (A) (A) (A) (A) (A) (A)
                 (A) (A) (A) (A) (A) (A) (A) (A) (A) (A) (A) (A)
                 (A) (A) (A) (A) (A) (A) (A) (A) (A) (A) (A) (A)
                 (A) (A) (A) (A) (A) (A) (A) (A) (A) (A) (A) (A)
                 (A) (A) (A) (A) (A) (A) (A) (A) (A) (A) (A) (A)
                 (A) (A) (A) (A) (A) (A) (A) (A) (A) (A) (A) (A)
                 (A) (A) (A) (A) (A) (A) (A) (A) (A) (A) (A) (A)
                 (A) (A) (A) (A) (A) (A) (A) (A) (A) (A) (A) (A)
                 (A) (A) (A) (A) (A) (A) (A) (A) (A) (A) (A) (A)
                 (A) (A) (A) (A) (A) (A) (A) (A) (A) (A) (A) (A)
                 (A) (A) (A) (A) (A) (A) (A) (A) (A) (A) (A) (A)
                 (A) (A) (A) (A) (A) (A) (A) (A) (A) (A) (A) (A)
                 (A) (A) (A) (A) (A) (A) (A) (A)
 The electronic state is 1-A.
 Alpha  occ. eigenvalues --  -19.11624 -10.20718 -10.20709 -10.20681 -10.20662
 Alpha  occ. eigenvalues --  -10.20635 -10.20630 -10.20616 -10.20612 -10.20573
 Alpha  occ. eigenvalues --  -10.20570 -10.20547 -10.20544 -10.19915 -10.19914
 Alpha  occ. eigenvalues --  -10.19893 -10.19891 -10.19860 -10.19857 -10.19850
 Alpha  occ. eigenvalues --  -10.19849 -10.19827 -10.19825 -10.19794 -10.19792
 Alpha  occ. eigenvalues --   -0.97618  -0.90945  -0.87277  -0.87236  -0.82562
 Alpha  occ. eigenvalues --   -0.82558  -0.80977  -0.77805  -0.76429  -0.74789
 Alpha  occ. eigenvalues --   -0.74755  -0.71530  -0.71528  -0.63869  -0.63856
 Alpha  occ. eigenvalues --   -0.63541  -0.63534  -0.62750  -0.56734  -0.55950
 Alpha  occ. eigenvalues --   -0.54312  -0.54301  -0.53827  -0.51685  -0.49441
 Alpha  occ. eigenvalues --   -0.47838  -0.47813  -0.46146  -0.46131  -0.46032
 Alpha  occ. eigenvalues --   -0.46013  -0.43146  -0.43111  -0.42464  -0.42458
 Alpha  occ. eigenvalues --   -0.42119  -0.40519  -0.40494  -0.38746  -0.38681
 Alpha  occ. eigenvalues --   -0.37889  -0.37868  -0.36395  -0.36387  -0.36301
 Alpha  occ. eigenvalues --   -0.35304  -0.33280  -0.33271  -0.32076  -0.32061
 Alpha  occ. eigenvalues --   -0.31704  -0.27209  -0.27098  -0.27055  -0.25594
 Alpha  occ. eigenvalues --   -0.25421  -0.20697  -0.20686
 Alpha virt. eigenvalues --   -0.05866  -0.05855  -0.01946  -0.01871   0.00205
 Alpha virt. eigenvalues --    0.01654   0.06191   0.08776   0.08932   0.09003
 Alpha virt. eigenvalues --    0.09029   0.10277   0.10310   0.12085   0.12100
 Alpha virt. eigenvalues --    0.14242   0.14417   0.16066   0.16086   0.16843
 Alpha virt. eigenvalues --    0.17703   0.17763   0.18106   0.18140   0.20483
 Alpha virt. eigenvalues --    0.20544   0.24695   0.25036   0.25077   0.26517
 Alpha virt. eigenvalues --    0.26544   0.26668   0.27947   0.27958   0.28347
 Alpha virt. eigenvalues --    0.28384   0.29784   0.33027   0.33042   0.34108
 Alpha virt. eigenvalues --    0.35504   0.35527   0.41157   0.42900   0.44720
 Alpha virt. eigenvalues --    0.45154   0.46124   0.46141   0.49264   0.49314
 Alpha virt. eigenvalues --    0.49990   0.51212   0.51497   0.51769   0.51788
 Alpha virt. eigenvalues --    0.53781   0.54058   0.54071   0.54800   0.55282
 Alpha virt. eigenvalues --    0.55341   0.55449   0.56341   0.56459   0.57335
 Alpha virt. eigenvalues --    0.57909   0.57955   0.57964   0.58256   0.58968
 Alpha virt. eigenvalues --    0.59040   0.59186   0.59215   0.59441   0.59669
 Alpha virt. eigenvalues --    0.59823   0.61395   0.61551   0.61553   0.62120
 Alpha virt. eigenvalues --    0.63130   0.63152   0.63321   0.63373   0.63963
 Alpha virt. eigenvalues --    0.67771   0.68589   0.68859   0.70056   0.70156
 Alpha virt. eigenvalues --    0.71083   0.71104   0.75995   0.77828   0.79765
 Alpha virt. eigenvalues --    0.80730   0.80765   0.81006   0.81480   0.82118
 Alpha virt. eigenvalues --    0.82178   0.82216   0.84509   0.84941   0.85072
 Alpha virt. eigenvalues --    0.85240   0.85323   0.85397   0.85425   0.87104
 Alpha virt. eigenvalues --    0.87864   0.89641   0.90624   0.91455   0.93143
 Alpha virt. eigenvalues --    0.93218   0.93984   0.94021   0.94811   0.95505
 Alpha virt. eigenvalues --    0.96230   0.97488   0.98770   0.99160   1.00762
 Alpha virt. eigenvalues --    1.01254   1.01471   1.01526   1.02160   1.04537
 Alpha virt. eigenvalues --    1.04681   1.05014   1.10205   1.14377   1.14507
 Alpha virt. eigenvalues --    1.15340   1.15347   1.15629   1.16131   1.17907
 Alpha virt. eigenvalues --    1.19887   1.20135   1.21761   1.22024   1.24358
 Alpha virt. eigenvalues --    1.24746   1.25966   1.26040   1.26296   1.26357
 Alpha virt. eigenvalues --    1.28140   1.29344   1.30352   1.30813   1.31236
 Alpha virt. eigenvalues --    1.34738   1.39830   1.39866   1.40179   1.40458
 Alpha virt. eigenvalues --    1.41734   1.42810   1.43031   1.45321   1.46273
 Alpha virt. eigenvalues --    1.46677   1.46982   1.47069   1.47688   1.47958
 Alpha virt. eigenvalues --    1.47973   1.48638   1.51602   1.51622   1.51861
 Alpha virt. eigenvalues --    1.51883   1.60563   1.60683   1.63775   1.63845
 Alpha virt. eigenvalues --    1.68358   1.69554   1.69728   1.70938   1.71999
 Alpha virt. eigenvalues --    1.75012   1.76325   1.76730   1.76770   1.77370
 Alpha virt. eigenvalues --    1.77533   1.77672   1.77740   1.79994   1.81563
 Alpha virt. eigenvalues --    1.82069   1.82426   1.85352   1.85436   1.87960
 Alpha virt. eigenvalues --    1.88429   1.90514   1.90584   1.90972   1.93578
 Alpha virt. eigenvalues --    1.93616   1.93705   1.93718   1.95054   1.95062
 Alpha virt. eigenvalues --    1.95145   1.95187   1.97783   2.00291   2.00318
 Alpha virt. eigenvalues --    2.00727   2.00770   2.03095   2.04499   2.06135
 Alpha virt. eigenvalues --    2.06152   2.06209   2.14104   2.14271   2.14285
 Alpha virt. eigenvalues --    2.14438   2.22792   2.22927   2.22933   2.25142
 Alpha virt. eigenvalues --    2.25253   2.25363   2.25531   2.25586   2.25704
 Alpha virt. eigenvalues --    2.26297   2.26418   2.29570   2.30500   2.31592
 Alpha virt. eigenvalues --    2.33402   2.33410   2.33606   2.33681   2.33711
 Alpha virt. eigenvalues --    2.34848   2.35019   2.40006   2.40044   2.41111
 Alpha virt. eigenvalues --    2.41368   2.44108   2.45146   2.48623   2.48857
 Alpha virt. eigenvalues --    2.56337   2.56389   2.60018   2.61584   2.61604
 Alpha virt. eigenvalues --    2.62259   2.62346   2.69764   2.70232   2.70501
 Alpha virt. eigenvalues --    2.70754   2.71480   2.72558   2.72605   2.77131
 Alpha virt. eigenvalues --    2.77352   2.81025   2.82590   2.82650   2.82708
 Alpha virt. eigenvalues --    2.83213   2.84343   2.84453   2.87846   2.91850
 Alpha virt. eigenvalues --    2.92035   2.98165   2.99914   2.99932   3.01755
 Alpha virt. eigenvalues --    3.03532   3.07350   3.07496   3.22396   3.30477
 Alpha virt. eigenvalues --    3.30550   3.40173   3.40284   3.56005   3.63734
 Alpha virt. eigenvalues --    3.63818   4.07803   4.08237   4.08458   4.09744
 Alpha virt. eigenvalues --    4.09756   4.11842   4.14669   4.15362   4.15439
 Alpha virt. eigenvalues --    4.16025   4.16087   4.17894   4.26113   4.26470
 Alpha virt. eigenvalues --    4.34077   4.34163   4.34566   4.39823   4.47154
 Alpha virt. eigenvalues --    4.52483   4.52564   4.74434   4.74531   5.01135
          Condensed to atoms (all electrons):
              1          2          3          4          5          6
     1  C    5.434782   0.226676   0.223316  -0.017242  -0.018147  -0.090843
     2  C    0.226676   5.397694  -0.019340   0.230537  -0.088687  -0.018188
     3  C    0.223316  -0.019340   5.413504  -0.089735   0.230621  -0.017209
     4  C   -0.017242   0.230537  -0.089735   5.414181  -0.019318   0.223265
     5  C   -0.018147  -0.088687   0.230621  -0.019318   5.397108   0.226777
     6  C   -0.090843  -0.018188  -0.017209   0.223265   0.226777   5.434371
     7  C    0.436764  -0.054233  -0.055001   0.014131   0.014071  -0.000855
     8  C   -0.054218   0.438284   0.014283  -0.053527  -0.000882   0.014362
     9  C   -0.054855   0.014128   0.437697  -0.000866  -0.053495   0.014260
    10  C    0.014256  -0.053532  -0.000865   0.437677   0.014125  -0.054852
    11  C    0.014367  -0.000883  -0.053509   0.014289   0.438278  -0.054207
    12  C   -0.000856   0.014072   0.014133  -0.055020  -0.054183   0.436789
    13  C    0.010395   0.018172  -0.083559  -0.000130  -0.002292  -0.000002
    14  C   -0.084044   0.011474  -0.002299   0.018294   0.000000  -0.000134
    15  C    0.010393  -0.083413   0.018193  -0.002295  -0.000130   0.000001
    16  C   -0.000131   0.018251  -0.000002   0.011115  -0.002293  -0.083967
    17  C   -0.000134   0.000000   0.018296  -0.002299   0.011489  -0.084048
    18  C    0.018281  -0.000131   0.010958   0.000002  -0.083626  -0.002298
    19  C   -0.000002  -0.002292  -0.000129  -0.083575   0.018173   0.010410
    20  C   -0.002298   0.000001  -0.083897  -0.000132   0.011257   0.018294
    21  C   -0.083979  -0.002292   0.011131  -0.000002   0.018252  -0.000131
    22  C    0.000001  -0.000131  -0.002296   0.018195  -0.083414   0.010406
    23  C    0.018293   0.011240  -0.000132  -0.083892   0.000001  -0.002297
    24  C   -0.002298  -0.083620   0.000002   0.010937  -0.000131   0.018278
    25  H    0.003286  -0.000234   0.001375   0.000002   0.000028  -0.000001
    26  H    0.001385   0.003239   0.000028  -0.000235  -0.000001   0.000003
    27  H    0.003274   0.001382  -0.000235   0.000028   0.000002  -0.000001
    28  H   -0.000001   0.000028   0.000002   0.001375  -0.000234   0.003285
    29  H    0.000003  -0.000001  -0.000235   0.000028   0.003238   0.001386
    30  H    0.001376   0.000028   0.003259  -0.000001  -0.000234   0.000002
    31  H    0.000029  -0.000001   0.001399   0.000002   0.003223  -0.000236
    32  H    0.000002  -0.000234  -0.000001   0.003260   0.000028   0.001376
    33  H   -0.000236   0.003224   0.000002   0.001398  -0.000001   0.000029
    34  H   -0.000236   0.000002   0.003236  -0.000001   0.001396   0.000029
    35  H   -0.000001   0.000002   0.000028  -0.000235   0.001383   0.003273
    36  H    0.000029   0.001395  -0.000001   0.003237   0.000002  -0.000236
    37  O   -0.000492   0.000103  -0.000057  -0.000073   0.000108  -0.000481
    38  H    0.005483   0.001019   0.002865  -0.000233  -0.000048  -0.000238
    39  H   -0.000235  -0.000035  -0.000238   0.002952   0.000977   0.005416
              7          8          9         10         11         12
     1  C    0.436764  -0.054218  -0.054855   0.014256   0.014367  -0.000856
     2  C   -0.054233   0.438284   0.014128  -0.053532  -0.000883   0.014072
     3  C   -0.055001   0.014283   0.437697  -0.000865  -0.053509   0.014133
     4  C    0.014131  -0.053527  -0.000866   0.437677   0.014289  -0.055020
     5  C    0.014071  -0.000882  -0.053495   0.014125   0.438278  -0.054183
     6  C   -0.000855   0.014362   0.014260  -0.054852  -0.054207   0.436789
     7  C    4.807203  -0.043938  -0.043819  -0.000104  -0.000105  -0.000001
     8  C   -0.043938   4.801890  -0.000105  -0.044033  -0.000003  -0.000105
     9  C   -0.043819  -0.000105   4.803554  -0.000002  -0.044047  -0.000104
    10  C   -0.000104  -0.044033  -0.000002   4.803608  -0.000105  -0.043817
    11  C   -0.000105  -0.000003  -0.044047  -0.000105   4.801907  -0.043949
    12  C   -0.000001  -0.000105  -0.000104  -0.043817  -0.043949   4.807146
    13  C    0.410842  -0.000456   0.014423  -0.000001   0.000074   0.000000
    14  C    0.014429   0.409990   0.000074  -0.000452   0.000000  -0.000001
    15  C    0.411239   0.014460  -0.000460   0.000073  -0.000001   0.000000
    16  C   -0.000001  -0.000455   0.000000   0.410120   0.000074   0.014372
    17  C   -0.000001   0.000000  -0.000452   0.000074   0.409971   0.014435
    18  C   -0.000463  -0.000001   0.411229   0.000000   0.014564   0.000073
    19  C    0.000000   0.000075  -0.000001   0.014421  -0.000456   0.410816
    20  C    0.000073   0.000000   0.014526  -0.000001   0.410569  -0.000458
    21  C    0.014371   0.000074   0.410095   0.000000  -0.000456  -0.000001
    22  C    0.000000  -0.000001   0.000073  -0.000459   0.014466   0.411243
    23  C   -0.000458   0.410583  -0.000001   0.014518   0.000000   0.000073
    24  C    0.000073   0.014556   0.000000   0.411236  -0.000001  -0.000463
    25  H   -0.035823   0.000013   0.001745   0.000000   0.000000   0.000000
    26  H    0.001745  -0.035621   0.000000   0.000013   0.000000   0.000000
    27  H   -0.035865   0.001733   0.000014   0.000000   0.000000   0.000000
    28  H    0.000000   0.000000   0.000000   0.001746   0.000013  -0.035819
    29  H    0.000000   0.000000   0.000013   0.000000  -0.035619   0.001744
    30  H    0.001752   0.000000  -0.035703   0.000000   0.000013   0.000000
    31  H    0.000000   0.000000   0.001726   0.000000  -0.035683   0.000013
    32  H    0.000000   0.000013   0.000000  -0.035708   0.000000   0.001752
    33  H    0.000013  -0.035683   0.000000   0.001727   0.000000   0.000000
    34  H    0.000014   0.000000  -0.035802   0.000000   0.001717   0.000000
    35  H    0.000000   0.000000   0.000000   0.000014   0.001732  -0.035867
    36  H    0.000000   0.001717   0.000000  -0.035803   0.000000   0.000014
    37  O   -0.000095  -0.000090  -0.000081  -0.000082  -0.000089  -0.000093
    38  H    0.000273  -0.000087  -0.000008  -0.000031  -0.000058  -0.000014
    39  H   -0.000014  -0.000060  -0.000030  -0.000004  -0.000085   0.000264
             13         14         15         16         17         18
     1  C    0.010395  -0.084044   0.010393  -0.000131  -0.000134   0.018281
     2  C    0.018172   0.011474  -0.083413   0.018251   0.000000  -0.000131
     3  C   -0.083559  -0.002299   0.018193  -0.000002   0.018296   0.010958
     4  C   -0.000130   0.018294  -0.002295   0.011115  -0.002299   0.000002
     5  C   -0.002292   0.000000  -0.000130  -0.002293   0.011489  -0.083626
     6  C   -0.000002  -0.000134   0.000001  -0.083967  -0.084048  -0.002298
     7  C    0.410842   0.014429   0.411239  -0.000001  -0.000001  -0.000463
     8  C   -0.000456   0.409990   0.014460  -0.000455   0.000000  -0.000001
     9  C    0.014423   0.000074  -0.000460   0.000000  -0.000452   0.411229
    10  C   -0.000001  -0.000452   0.000073   0.410120   0.000074   0.000000
    11  C    0.000074   0.000000  -0.000001   0.000074   0.409971   0.014564
    12  C    0.000000  -0.000001   0.000000   0.014372   0.014435   0.000073
    13  C    5.184345   0.008988  -0.101368   0.000000   0.000001   0.009015
    14  C    0.008988   5.183063   0.432850  -0.000013   0.000000   0.000001
    15  C   -0.101368   0.432850   5.182525   0.000001   0.000000  -0.000013
    16  C    0.000000  -0.000013   0.000001   5.184675  -0.000432   0.000000
    17  C    0.000001   0.000000   0.000000  -0.000432   5.183042   0.008993
    18  C    0.009015   0.000001  -0.000013   0.000000   0.008993   5.180991
    19  C    0.000000   0.000001   0.000000   0.432284   0.008988   0.000001
    20  C   -0.000433   0.000000   0.000001   0.000001  -0.101657   0.433176
    21  C    0.432294  -0.000432   0.008997   0.000000  -0.000013  -0.101632
    22  C    0.000000   0.000000   0.000000   0.008997   0.432855  -0.000432
    23  C   -0.000013  -0.101651   0.009002   0.009006   0.000000   0.000000
    24  C    0.000001   0.008993  -0.000432  -0.101626   0.000001   0.000000
    25  H    0.351671   0.000192  -0.006765   0.000000   0.000000  -0.000202
    26  H   -0.000203   0.351518  -0.037056   0.000000   0.000000   0.000000
    27  H   -0.006745  -0.036927   0.351604   0.000000   0.000000   0.000000
    28  H    0.000000   0.000000   0.000000  -0.037015   0.000192   0.000000
    29  H    0.000000   0.000000   0.000000   0.000003   0.351513   0.000193
    30  H   -0.037093   0.000003  -0.000202   0.000000   0.000000  -0.006773
    31  H    0.000003   0.000000   0.000000   0.000000  -0.006744  -0.036960
    32  H    0.000000   0.000000   0.000000   0.351658   0.000003   0.000000
    33  H    0.000000  -0.006744   0.000193  -0.000204   0.000000   0.000000
    34  H    0.000194   0.000000   0.000000   0.000000  -0.000203   0.351460
    35  H    0.000000   0.000000   0.000000   0.000192  -0.036924   0.000003
    36  H    0.000000  -0.000203   0.000003  -0.006744   0.000000   0.000000
    37  O    0.000001   0.000005  -0.000001   0.000005   0.000005  -0.000001
    38  H   -0.000031  -0.000044  -0.000012   0.000000   0.000000  -0.000002
    39  H    0.000001   0.000000   0.000001  -0.000062  -0.000043   0.000001
             19         20         21         22         23         24
     1  C   -0.000002  -0.002298  -0.083979   0.000001   0.018293  -0.002298
     2  C   -0.002292   0.000001  -0.002292  -0.000131   0.011240  -0.083620
     3  C   -0.000129  -0.083897   0.011131  -0.002296  -0.000132   0.000002
     4  C   -0.083575  -0.000132  -0.000002   0.018195  -0.083892   0.010937
     5  C    0.018173   0.011257   0.018252  -0.083414   0.000001  -0.000131
     6  C    0.010410   0.018294  -0.000131   0.010406  -0.002297   0.018278
     7  C    0.000000   0.000073   0.014371   0.000000  -0.000458   0.000073
     8  C    0.000075   0.000000   0.000074  -0.000001   0.410583   0.014556
     9  C   -0.000001   0.014526   0.410095   0.000073  -0.000001   0.000000
    10  C    0.014421  -0.000001   0.000000  -0.000459   0.014518   0.411236
    11  C   -0.000456   0.410569  -0.000456   0.014466   0.000000  -0.000001
    12  C    0.410816  -0.000458  -0.000001   0.411243   0.000073  -0.000463
    13  C    0.000000  -0.000433   0.432294   0.000000  -0.000013   0.000001
    14  C    0.000001   0.000000  -0.000432   0.000000  -0.101651   0.008993
    15  C    0.000000   0.000001   0.008997   0.000000   0.009002  -0.000432
    16  C    0.432284   0.000001   0.000000   0.008997   0.009006  -0.101626
    17  C    0.008988  -0.101657  -0.000013   0.432855   0.000000   0.000001
    18  C    0.000001   0.433176  -0.101632  -0.000432   0.000000   0.000000
    19  C    5.184389  -0.000013   0.000000  -0.101373  -0.000433   0.009014
    20  C   -0.000013   5.181389   0.009006   0.009002   0.000000   0.000000
    21  C    0.000000   0.009006   5.184656   0.000001   0.000001   0.000000
    22  C   -0.101373   0.009002   0.000001   5.182497   0.000001  -0.000013
    23  C   -0.000433   0.000000   0.000001   0.000001   5.181392   0.433180
    24  C    0.009014   0.000000   0.000000  -0.000013   0.433180   5.181002
    25  H    0.000000   0.000003  -0.037011   0.000000   0.000000   0.000000
    26  H    0.000000   0.000000   0.000003   0.000000  -0.006751   0.000193
    27  H    0.000000   0.000000   0.000192   0.000000  -0.000202   0.000003
    28  H    0.351672   0.000000   0.000000  -0.006766   0.000003  -0.000202
    29  H   -0.000203  -0.006751   0.000000  -0.037057   0.000000   0.000000
    30  H    0.000000   0.000194   0.351655   0.000000   0.000000   0.000000
    31  H    0.000000   0.351425  -0.000204   0.000193   0.000000   0.000000
    32  H   -0.037090   0.000000   0.000000  -0.000202   0.000194  -0.006772
    33  H    0.000003   0.000000   0.000000   0.000000   0.351430  -0.036960
    34  H    0.000000  -0.036876  -0.006744   0.000003   0.000000   0.000000
    35  H   -0.006745  -0.000202   0.000000   0.351599   0.000000   0.000000
    36  H    0.000194   0.000000   0.000000   0.000000  -0.036877   0.351464
    37  O    0.000001   0.000001   0.000005  -0.000001   0.000001  -0.000001
    38  H    0.000001  -0.000007  -0.000063   0.000001   0.000000   0.000001
    39  H   -0.000032   0.000000   0.000000  -0.000011  -0.000008  -0.000003
             25         26         27         28         29         30
     1  C    0.003286   0.001385   0.003274  -0.000001   0.000003   0.001376
     2  C   -0.000234   0.003239   0.001382   0.000028  -0.000001   0.000028
     3  C    0.001375   0.000028  -0.000235   0.000002  -0.000235   0.003259
     4  C    0.000002  -0.000235   0.000028   0.001375   0.000028  -0.000001
     5  C    0.000028  -0.000001   0.000002  -0.000234   0.003238  -0.000234
     6  C   -0.000001   0.000003  -0.000001   0.003285   0.001386   0.000002
     7  C   -0.035823   0.001745  -0.035865   0.000000   0.000000   0.001752
     8  C    0.000013  -0.035621   0.001733   0.000000   0.000000   0.000000
     9  C    0.001745   0.000000   0.000014   0.000000   0.000013  -0.035703
    10  C    0.000000   0.000013   0.000000   0.001746   0.000000   0.000000
    11  C    0.000000   0.000000   0.000000   0.000013  -0.035619   0.000013
    12  C    0.000000   0.000000   0.000000  -0.035819   0.001744   0.000000
    13  C    0.351671  -0.000203  -0.006745   0.000000   0.000000  -0.037093
    14  C    0.000192   0.351518  -0.036927   0.000000   0.000000   0.000003
    15  C   -0.006765  -0.037056   0.351604   0.000000   0.000000  -0.000202
    16  C    0.000000   0.000000   0.000000  -0.037015   0.000003   0.000000
    17  C    0.000000   0.000000   0.000000   0.000192   0.351513   0.000000
    18  C   -0.000202   0.000000   0.000000   0.000000   0.000193  -0.006773
    19  C    0.000000   0.000000   0.000000   0.351672  -0.000203   0.000000
    20  C    0.000003   0.000000   0.000000   0.000000  -0.006751   0.000194
    21  C   -0.037011   0.000003   0.000192   0.000000   0.000000   0.351655
    22  C    0.000000   0.000000   0.000000  -0.006766  -0.037057   0.000000
    23  C    0.000000  -0.006751  -0.000202   0.000003   0.000000   0.000000
    24  C    0.000000   0.000193   0.000003  -0.000202   0.000000   0.000000
    25  H    0.585834  -0.000011   0.006367   0.000000   0.000000  -0.004412
    26  H   -0.000011   0.585725  -0.004409   0.000000   0.000000   0.000000
    27  H    0.006367  -0.004409   0.585957   0.000000   0.000000  -0.000011
    28  H    0.000000   0.000000   0.000000   0.585830  -0.000011   0.000000
    29  H    0.000000   0.000000   0.000000  -0.000011   0.585739   0.000000
    30  H   -0.004412   0.000000  -0.000011   0.000000   0.000000   0.585663
    31  H    0.000000   0.000000   0.000000   0.000000   0.006375  -0.000011
    32  H    0.000000   0.000000   0.000000  -0.004412   0.000000   0.000000
    33  H    0.000000   0.006375  -0.000011   0.000000   0.000000   0.000000
    34  H   -0.000011   0.000000   0.000000   0.000000  -0.000011   0.006380
    35  H    0.000000   0.000000   0.000000   0.006368  -0.004409   0.000000
    36  H    0.000000  -0.000011   0.000000  -0.000011   0.000000   0.000000
    37  O    0.000000   0.000000   0.000000   0.000000   0.000000   0.000000
    38  H    0.000000   0.000000   0.000000   0.000000   0.000000   0.000000
    39  H    0.000000   0.000000   0.000000   0.000000   0.000000   0.000000
             31         32         33         34         35         36
     1  C    0.000029   0.000002  -0.000236  -0.000236  -0.000001   0.000029
     2  C   -0.000001  -0.000234   0.003224   0.000002   0.000002   0.001395
     3  C    0.001399  -0.000001   0.000002   0.003236   0.000028  -0.000001
     4  C    0.000002   0.003260   0.001398  -0.000001  -0.000235   0.003237
     5  C    0.003223   0.000028  -0.000001   0.001396   0.001383   0.000002
     6  C   -0.000236   0.001376   0.000029   0.000029   0.003273  -0.000236
     7  C    0.000000   0.000000   0.000013   0.000014   0.000000   0.000000
     8  C    0.000000   0.000013  -0.035683   0.000000   0.000000   0.001717
     9  C    0.001726   0.000000   0.000000  -0.035802   0.000000   0.000000
    10  C    0.000000  -0.035708   0.001727   0.000000   0.000014  -0.035803
    11  C   -0.035683   0.000000   0.000000   0.001717   0.001732   0.000000
    12  C    0.000013   0.001752   0.000000   0.000000  -0.035867   0.000014
    13  C    0.000003   0.000000   0.000000   0.000194   0.000000   0.000000
    14  C    0.000000   0.000000  -0.006744   0.000000   0.000000  -0.000203
    15  C    0.000000   0.000000   0.000193   0.000000   0.000000   0.000003
    16  C    0.000000   0.351658  -0.000204   0.000000   0.000192  -0.006744
    17  C   -0.006744   0.000003   0.000000  -0.000203  -0.036924   0.000000
    18  C   -0.036960   0.000000   0.000000   0.351460   0.000003   0.000000
    19  C    0.000000  -0.037090   0.000003   0.000000  -0.006745   0.000194
    20  C    0.351425   0.000000   0.000000  -0.036876  -0.000202   0.000000
    21  C   -0.000204   0.000000   0.000000  -0.006744   0.000000   0.000000
    22  C    0.000193  -0.000202   0.000000   0.000003   0.351599   0.000000
    23  C    0.000000   0.000194   0.351430   0.000000   0.000000  -0.036877
    24  C    0.000000  -0.006772  -0.036960   0.000000   0.000000   0.351464
    25  H    0.000000   0.000000   0.000000  -0.000011   0.000000   0.000000
    26  H    0.000000   0.000000   0.006375   0.000000   0.000000  -0.000011
    27  H    0.000000   0.000000  -0.000011   0.000000   0.000000   0.000000
    28  H    0.000000  -0.004412   0.000000   0.000000   0.006368  -0.000011
    29  H    0.006375   0.000000   0.000000  -0.000011  -0.004409   0.000000
    30  H   -0.000011   0.000000   0.000000   0.006380   0.000000   0.000000
    31  H    0.585988   0.000000   0.000000  -0.004400  -0.000011   0.000000
    32  H    0.000000   0.585663  -0.000011   0.000000  -0.000011   0.006380
    33  H    0.000000  -0.000011   0.585972   0.000000   0.000000  -0.004400
    34  H   -0.004400   0.000000   0.000000   0.586023   0.000000   0.000000
    35  H   -0.000011  -0.000011   0.000000   0.000000   0.585975   0.000000
    36  H    0.000000   0.006380  -0.004400   0.000000   0.000000   0.586009
    37  O    0.000000   0.000000   0.000000   0.000000   0.000000   0.000000
    38  H    0.000000   0.000000   0.000000   0.000000   0.000000   0.000000
    39  H    0.000000   0.000000   0.000000   0.000000   0.000000   0.000000
             37         38         39
     1  C   -0.000492   0.005483  -0.000235
     2  C    0.000103   0.001019  -0.000035
     3  C   -0.000057   0.002865  -0.000238
     4  C   -0.000073  -0.000233   0.002952
     5  C    0.000108  -0.000048   0.000977
     6  C   -0.000481  -0.000238   0.005416
     7  C   -0.000095   0.000273  -0.000014
     8  C   -0.000090  -0.000087  -0.000060
     9  C   -0.000081  -0.000008  -0.000030
    10  C   -0.000082  -0.000031  -0.000004
    11  C   -0.000089  -0.000058  -0.000085
    12  C   -0.000093  -0.000014   0.000264
    13  C    0.000001  -0.000031   0.000001
    14  C    0.000005  -0.000044   0.000000
    15  C   -0.000001  -0.000012   0.000001
    16  C    0.000005   0.000000  -0.000062
    17  C    0.000005   0.000000  -0.000043
    18  C   -0.000001  -0.000002   0.000001
    19  C    0.000001   0.000001  -0.000032
    20  C    0.000001  -0.000007   0.000000
    21  C    0.000005  -0.000063   0.000000
    22  C   -0.000001   0.000001  -0.000011
    23  C    0.000001   0.000000  -0.000008
    24  C   -0.000001   0.000001  -0.000003
    25  H    0.000000   0.000000   0.000000
    26  H    0.000000   0.000000   0.000000
    27  H    0.000000   0.000000   0.000000
    28  H    0.000000   0.000000   0.000000
    29  H    0.000000   0.000000   0.000000
    30  H    0.000000   0.000000   0.000000
    31  H    0.000000   0.000000   0.000000
    32  H    0.000000   0.000000   0.000000
    33  H    0.000000   0.000000   0.000000
    34  H    0.000000   0.000000   0.000000
    35  H    0.000000   0.000000   0.000000
    36  H    0.000000   0.000000   0.000000
    37  O    8.306089   0.245080   0.245081
    38  H    0.245080   0.382848  -0.027329
    39  H    0.245081  -0.027329   0.382881
 Mulliken atomic charges:
              1
     1  C   -0.012144
     2  C    0.016290
     3  C    0.004409
     4  C    0.003904
     5  C    0.016576
     6  C   -0.011785
     7  C    0.143785
     8  C    0.147233
     9  C    0.146273
    10  C    0.146241
    11  C    0.147220
    12  C    0.143813
    13  C   -0.208095
    14  C   -0.206929
    15  C   -0.207387
    16  C   -0.207807
    17  C   -0.206906
    18  C   -0.206405
    19  C   -0.208098
    20  C   -0.206191
    21  C   -0.207774
    22  C   -0.207377
    23  C   -0.206201
    24  C   -0.206412
    25  H    0.133951
    26  H    0.134070
    27  H    0.133849
    28  H    0.133956
    29  H    0.134061
    30  H    0.134112
    31  H    0.133871
    32  H    0.134110
    33  H    0.133883
    34  H    0.133831
    35  H    0.133836
    36  H    0.133842
    37  O   -0.794850
    38  H    0.390633
    39  H    0.390615
 Sum of Mulliken atomic charges =   0.00000
 Mulliken charges with hydrogens summed into heavy atoms:
              1
     1  C   -0.012144
     2  C    0.016290
     3  C    0.004409
     4  C    0.003904
     5  C    0.016576
     6  C   -0.011785
     7  C    0.143785
     8  C    0.147233
     9  C    0.146273
    10  C    0.146241
    11  C    0.147220
    12  C    0.143813
    13  C   -0.074144
    14  C   -0.072859
    15  C   -0.073538
    16  C   -0.073697
    17  C   -0.072845
    18  C   -0.072574
    19  C   -0.074142
    20  C   -0.072320
    21  C   -0.073662
    22  C   -0.073541
    23  C   -0.072319
    24  C   -0.072571
    37  O   -0.013603
 Sum of Mulliken charges with hydrogens summed into heavy atoms =   0.00000
          Condensed to fragments (all electrons):
     1       0.013603
     2      -0.013603
 Electronic spatial extent (au):  <R**2>=           6574.8965
 Charge=              0.0000 electrons
 Dipole moment (field-independent basis, Debye):
    X=              0.0017    Y=             -0.0031    Z=             -2.5042  Tot=              2.5042
 Quadrupole moment (field-independent basis, Debye-Ang):
   XX=           -118.8003   YY=           -120.8188   ZZ=           -161.0484
   XY=              0.2324   XZ=              0.0113   YZ=              0.0038
 Traceless Quadrupole moment (field-independent basis, Debye-Ang):
   XX=             14.7555   YY=             12.7370   ZZ=            -27.4925
   XY=              0.2324   XZ=              0.0113   YZ=              0.0038
 Octapole moment (field-independent basis, Debye-Ang**2):
  XXX=             -0.0111  YYY=              0.0123  ZZZ=            -36.1720  XYY=             -0.0061
  XXY=             -0.0117  XXZ=              7.6052  XZZ=              0.0323  YZZ=              0.0153
  YYZ=              0.0164  XYZ=              0.8508
 Hexadecapole moment (field-independent basis, Debye-Ang**3):
 XXXX=          -3781.3473 YYYY=          -3771.0334 ZZZZ=           -813.0719 XXXY=             -0.6490
 XXXZ=             -0.0477 YYYX=             -0.2376 YYYZ=              0.1226 ZZZX=              0.0315
 ZZZY=              0.1160 XXYY=          -1258.8991 XXZZ=           -852.2886 YYZZ=           -873.8763
 XXYZ=             -0.0156 YYXZ=             -0.0216 ZZXY=              2.6948
 N-N= 2.022281503038D+03 E-N=-6.359101213511D+03  KE= 9.888730708664D+02
 Counterpoise: doing DCBS calculation for fragment   1 NewBq=T
 Basis read from rwf:  (6D, 7F)
 There are   403 symmetry adapted basis functions of A   symmetry.
 Integral buffers will be    131072 words long.
 Raffenetti 2 integral format.
 Two-electron integral symmetry is turned on.
   403 basis functions,   756 primitive gaussians,   403 cartesian basis functions
    78 alpha electrons       78 beta electrons
       nuclear repulsion energy      1829.8007177519 Hartrees.
 NAtoms=   39 NActive=   39 NUniq=   39 SFac= 1.00D+00 NAtFMM=   50 NAOKFM=F Big=F
 One-electron integrals computed using PRISM.
 NBasis=   403 RedAO= T  NBF=   403
 NBsUse=   403 1.00D-06 NBFU=   403
 Harris functional with IExCor=  402 diagonalized for initial guess.
 ExpMin= 1.61D-01 ExpMax= 5.48D+03 ExpMxC= 8.25D+02 IAcc=1 IRadAn=         1 AccDes= 0.00D+00
 HarFok:  IExCor=  402 AccDes= 0.00D+00 IRadAn=         1 IDoV= 1
 ScaDFX=  1.000000  1.000000  1.000000  1.000000
 FoFCou: FMM=F IPFlag=           0 FMFlag=      100000 FMFlg1=           0
         NFxFlg=           0 DoJE=T BraDBF=F KetDBF=T FulRan=T
         Omega=  0.000000  0.000000  1.000000  0.000000  0.000000 ICntrl=     500 IOpCl=  0
         NMat0=    1 NMatS0=    1 NMatT0=    0 NMatD0=    1 NMtDS0=    0 NMtDT0=    0
         I1Cent=           4 NGrid=           0.
 Petite list used in FoFCou.
 Initial guess orbital symmetries:
       Occupied  (A) (A) (A) (A) (A) (A) (A) (A) (A) (A) (A) (A)
                 (A) (A) (A) (A) (A) (A) (A) (A) (A) (A) (A) (A)
                 (A) (A) (A) (A) (A) (A) (A) (A) (A) (A) (A) (A)
                 (A) (A) (A) (A) (A) (A) (A) (A) (A) (A) (A) (A)
                 (A) (A) (A) (A) (A) (A) (A) (A) (A) (A) (A) (A)
                 (A) (A) (A) (A) (A) (A) (A) (A) (A) (A) (A) (A)
                 (A) (A) (A) (A) (A) (A)
       Virtual   (A) (A) (A) (A) (A) (A) (A) (A) (A) (A) (A) (A)
                 (A) (A) (A) (A) (A) (A) (A) (A) (A) (A) (A) (A)
                 (A) (A) (A) (A) (A) (A) (A) (A) (A) (A) (A) (A)
                 (A) (A) (A) (A) (A) (A) (A) (A) (A) (A) (A) (A)
                 (A) (A) (A) (A) (A) (A) (A) (A) (A) (A) (A) (A)
                 (A) (A) (A) (A) (A) (A) (A) (A) (A) (A) (A) (A)
                 (A) (A) (A) (A) (A) (A) (A) (A) (A) (A) (A) (A)
                 (A) (A) (A) (A) (A) (A) (A) (A) (A) (A) (A) (A)
                 (A) (A) (A) (A) (A) (A) (A) (A) (A) (A) (A) (A)
                 (A) (A) (A) (A) (A) (A) (A) (A) (A) (A) (A) (A)
                 (A) (A) (A) (A) (A) (A) (A) (A) (A) (A) (A) (A)
                 (A) (A) (A) (A) (A) (A) (A) (A) (A) (A) (A) (A)
                 (A) (A) (A) (A) (A) (A) (A) (A) (A) (A) (A) (A)
                 (A) (A) (A) (A) (A) (A) (A) (A) (A) (A) (A) (A)
                 (A) (A) (A) (A) (A) (A) (A) (A) (A) (A) (A) (A)
                 (A) (A) (A) (A) (A) (A) (A) (A) (A) (A) (A) (A)
                 (A) (A) (A) (A) (A) (A) (A) (A) (A) (A) (A) (A)
                 (A) (A) (A) (A) (A) (A) (A) (A) (A) (A) (A) (A)
                 (A) (A) (A) (A) (A) (A) (A) (A) (A) (A) (A) (A)
                 (A) (A) (A) (A) (A) (A) (A) (A) (A) (A) (A) (A)
                 (A) (A) (A) (A) (A) (A) (A) (A) (A) (A) (A) (A)
                 (A) (A) (A) (A) (A) (A) (A) (A) (A) (A) (A) (A)
                 (A) (A) (A) (A) (A) (A) (A) (A) (A) (A) (A) (A)
                 (A) (A) (A) (A) (A) (A) (A) (A) (A) (A) (A) (A)
                 (A) (A) (A) (A) (A) (A) (A) (A) (A) (A) (A) (A)
                 (A) (A) (A) (A) (A) (A) (A) (A) (A) (A) (A) (A)
                 (A) (A) (A) (A) (A) (A) (A) (A) (A) (A) (A) (A)
                 (A)
 The electronic state of the initial guess is 1-A.
 Requested convergence on RMS density matrix=1.00D-08 within  64 cycles.
 Requested convergence on MAX density matrix=1.00D-06.
 Requested convergence on             energy=1.00D-06.
 No special actions if energy rises.
 Integral accuracy reduced to 1.0D-05 until final iterations.
 Initial convergence to 1.0D-05 achieved.  Increase integral accuracy.
 SCF Done:  E(RB3LYP) =  -921.898503091     A.U. after   13 cycles
             Convg  =    0.7613D-08             -V/T =  2.0097
 QCSCF skips out because SCF is already converged.

 **********************************************************************

            Population analysis using the SCF density.

 **********************************************************************

 Orbital symmetries:
       Occupied  (A) (A) (A) (A) (A) (A) (A) (A) (A) (A) (A) (A)
                 (A) (A) (A) (A) (A) (A) (A) (A) (A) (A) (A) (A)
                 (A) (A) (A) (A) (A) (A) (A) (A) (A) (A) (A) (A)
                 (A) (A) (A) (A) (A) (A) (A) (A) (A) (A) (A) (A)
                 (A) (A) (A) (A) (A) (A) (A) (A) (A) (A) (A) (A)
                 (A) (A) (A) (A) (A) (A) (A) (A) (A) (A) (A) (A)
                 (A) (A) (A) (A) (A) (A)
       Virtual   (A) (A) (A) (A) (A) (A) (A) (A) (A) (A) (A) (A)
                 (A) (A) (A) (A) (A) (A) (A) (A) (A) (A) (A) (A)
                 (A) (A) (A) (A) (A) (A) (A) (A) (A) (A) (A) (A)
                 (A) (A) (A) (A) (A) (A) (A) (A) (A) (A) (A) (A)
                 (A) (A) (A) (A) (A) (A) (A) (A) (A) (A) (A) (A)
                 (A) (A) (A) (A) (A) (A) (A) (A) (A) (A) (A) (A)
                 (A) (A) (A) (A) (A) (A) (A) (A) (A) (A) (A) (A)
                 (A) (A) (A) (A) (A) (A) (A) (A) (A) (A) (A) (A)
                 (A) (A) (A) (A) (A) (A) (A) (A) (A) (A) (A) (A)
                 (A) (A) (A) (A) (A) (A) (A) (A) (A) (A) (A) (A)
                 (A) (A) (A) (A) (A) (A) (A) (A) (A) (A) (A) (A)
                 (A) (A) (A) (A) (A) (A) (A) (A) (A) (A) (A) (A)
                 (A) (A) (A) (A) (A) (A) (A) (A) (A) (A) (A) (A)
                 (A) (A) (A) (A) (A) (A) (A) (A) (A) (A) (A) (A)
                 (A) (A) (A) (A) (A) (A) (A) (A) (A) (A) (A) (A)
                 (A) (A) (A) (A) (A) (A) (A) (A) (A) (A) (A) (A)
                 (A) (A) (A) (A) (A) (A) (A) (A) (A) (A) (A) (A)
                 (A) (A) (A) (A) (A) (A) (A) (A) (A) (A) (A) (A)
                 (A) (A) (A) (A) (A) (A) (A) (A) (A) (A) (A) (A)
                 (A) (A) (A) (A) (A) (A) (A) (A) (A) (A) (A) (A)
                 (A) (A) (A) (A) (A) (A) (A) (A) (A) (A) (A) (A)
                 (A) (A) (A) (A) (A) (A) (A) (A) (A) (A) (A) (A)
                 (A) (A) (A) (A) (A) (A) (A) (A) (A) (A) (A) (A)
                 (A) (A) (A) (A) (A) (A) (A) (A) (A) (A) (A) (A)
                 (A) (A) (A) (A) (A) (A) (A) (A) (A) (A) (A) (A)
                 (A) (A) (A) (A) (A) (A) (A) (A) (A) (A) (A) (A)
                 (A) (A) (A) (A) (A) (A) (A) (A) (A) (A) (A) (A)
                 (A)
 The electronic state is 1-A.
 Alpha  occ. eigenvalues --  -10.19953 -10.19942 -10.19935 -10.19925 -10.19918
 Alpha  occ. eigenvalues --  -10.19917 -10.19897 -10.19894 -10.19888 -10.19867
 Alpha  occ. eigenvalues --  -10.19861 -10.19846 -10.19286 -10.19286 -10.19285
 Alpha  occ. eigenvalues --  -10.19285 -10.19283 -10.19283 -10.19221 -10.19220
 Alpha  occ. eigenvalues --  -10.19220 -10.19219 -10.19217 -10.19217  -0.90181
 Alpha  occ. eigenvalues --   -0.86572  -0.86559  -0.81914  -0.81912  -0.80257
 Alpha  occ. eigenvalues --   -0.77195  -0.75782  -0.74060  -0.74044  -0.70904
 Alpha  occ. eigenvalues --   -0.70901  -0.63176  -0.63170  -0.62917  -0.62911
 Alpha  occ. eigenvalues --   -0.62071  -0.56148  -0.55297  -0.53665  -0.53653
 Alpha  occ. eigenvalues --   -0.53174  -0.51046  -0.47222  -0.47218  -0.45540
 Alpha  occ. eigenvalues --   -0.45535  -0.45381  -0.45372  -0.42493  -0.42218
 Alpha  occ. eigenvalues --   -0.41825  -0.41814  -0.41436  -0.39903  -0.39901
 Alpha  occ. eigenvalues --   -0.38012  -0.38005  -0.37293  -0.37279  -0.35766
 Alpha  occ. eigenvalues --   -0.35759  -0.35674  -0.32639  -0.32637  -0.31402
 Alpha  occ. eigenvalues --   -0.31394  -0.31101  -0.26629  -0.26396  -0.24744
 Alpha  occ. eigenvalues --   -0.24735  -0.20055  -0.20053
 Alpha virt. eigenvalues --   -0.05216  -0.05214  -0.01126  -0.01111   0.00892
 Alpha virt. eigenvalues --    0.02226   0.06885   0.09374   0.09656   0.09658
 Alpha virt. eigenvalues --    0.10745   0.10747   0.12554   0.12556   0.13978
 Alpha virt. eigenvalues --    0.14699   0.14845   0.16536   0.16539   0.18417
 Alpha virt. eigenvalues --    0.18433   0.18618   0.18622   0.20927   0.21221
 Alpha virt. eigenvalues --    0.25302   0.25640   0.25649   0.27183   0.27214
 Alpha virt. eigenvalues --    0.27426   0.27603   0.28581   0.28594   0.28956
 Alpha virt. eigenvalues --    0.28967   0.30435   0.33644   0.33659   0.34701
 Alpha virt. eigenvalues --    0.36119   0.36157   0.41773   0.43635   0.45085
 Alpha virt. eigenvalues --    0.45334   0.45798   0.46758   0.46819   0.49933
 Alpha virt. eigenvalues --    0.49954   0.51063   0.51715   0.52136   0.52368
 Alpha virt. eigenvalues --    0.52541   0.54643   0.54664   0.55289   0.55364
 Alpha virt. eigenvalues --    0.55952   0.55982   0.56258   0.56928   0.57407
 Alpha virt. eigenvalues --    0.58363   0.58511   0.58647   0.58689   0.58814
 Alpha virt. eigenvalues --    0.59558   0.59632   0.59762   0.59769   0.60106
 Alpha virt. eigenvalues --    0.60405   0.60889   0.61923   0.62235   0.62264
 Alpha virt. eigenvalues --    0.63691   0.63702   0.63926   0.63944   0.65146
 Alpha virt. eigenvalues --    0.66619   0.67179   0.69181   0.69514   0.70443
 Alpha virt. eigenvalues --    0.70865   0.71648   0.71655   0.72469   0.76527
 Alpha virt. eigenvalues --    0.78528   0.81253   0.81279   0.81714   0.81960
 Alpha virt. eigenvalues --    0.82623   0.82646   0.82783   0.84063   0.85041
 Alpha virt. eigenvalues --    0.85403   0.85509   0.85650   0.85745   0.85924
 Alpha virt. eigenvalues --    0.85926   0.88751   0.88987   0.90798   0.91248
 Alpha virt. eigenvalues --    0.93795   0.93858   0.94611   0.94714   0.95411
 Alpha virt. eigenvalues --    0.96797   0.98263   0.99569   1.01328   1.01827
 Alpha virt. eigenvalues --    1.02078   1.02159   1.02824   1.03529   1.05328
 Alpha virt. eigenvalues --    1.05539   1.06494   1.10713   1.15211   1.15258
 Alpha virt. eigenvalues --    1.15966   1.15971   1.16211   1.16811   1.20645
 Alpha virt. eigenvalues --    1.21013   1.22494   1.22666   1.25051   1.25242
 Alpha virt. eigenvalues --    1.26717   1.26727   1.26927   1.26950   1.29960
 Alpha virt. eigenvalues --    1.29965   1.31049   1.31881   1.35329   1.40534
 Alpha virt. eigenvalues --    1.40544   1.40836   1.40998   1.42372   1.43247
 Alpha virt. eigenvalues --    1.43720   1.45920   1.47069   1.47094   1.47610
 Alpha virt. eigenvalues --    1.47612   1.48226   1.48575   1.48625   1.49393
 Alpha virt. eigenvalues --    1.52282   1.52302   1.52606   1.52611   1.61237
 Alpha virt. eigenvalues --    1.61349   1.64579   1.64600   1.68975   1.70301
 Alpha virt. eigenvalues --    1.70377   1.71643   1.72804   1.77395   1.77404
 Alpha virt. eigenvalues --    1.77709   1.77871   1.78373   1.78383   1.82114
 Alpha virt. eigenvalues --    1.82666   1.83041   1.86006   1.86019   1.88130
 Alpha virt. eigenvalues --    1.89083   1.91144   1.91204   1.91615   1.94224
 Alpha virt. eigenvalues --    1.94244   1.94366   1.94385   1.95660   1.95679
 Alpha virt. eigenvalues --    1.95779   1.95912   1.98263   2.01011   2.01036
 Alpha virt. eigenvalues --    2.01328   2.01374   2.03882   2.05101   2.06765
 Alpha virt. eigenvalues --    2.06805   2.06823   2.11018   2.14469   2.14784
 Alpha virt. eigenvalues --    2.14923   2.15272   2.17292   2.23372   2.23571
 Alpha virt. eigenvalues --    2.23713   2.25790   2.26031   2.26082   2.26141
 Alpha virt. eigenvalues --    2.26367   2.26567   2.27017   2.27211   2.29936
 Alpha virt. eigenvalues --    2.30219   2.34042   2.34063   2.34299   2.34340
 Alpha virt. eigenvalues --    2.34354   2.35506   2.35677   2.40612   2.40630
 Alpha virt. eigenvalues --    2.40632   2.41822   2.42036   2.44816   2.45982
 Alpha virt. eigenvalues --    2.49212   2.49692   2.57013   2.57037   2.62242
 Alpha virt. eigenvalues --    2.62258   2.62954   2.63008   2.70515   2.70893
 Alpha virt. eigenvalues --    2.71161   2.71402   2.72456   2.73209   2.73281
 Alpha virt. eigenvalues --    2.77751   2.78019   2.79157   2.79291   2.79574
 Alpha virt. eigenvalues --    2.81609   2.83300   2.83365   2.83432   2.83881
 Alpha virt. eigenvalues --    2.84981   2.85087   2.88592   2.92579   2.92622
 Alpha virt. eigenvalues --    2.98809   3.00586   3.00595   3.02465   3.04243
 Alpha virt. eigenvalues --    3.08020   3.08072   3.23152   3.31147   3.31208
 Alpha virt. eigenvalues --    3.40858   3.40939   3.50046   3.56741   3.64521
 Alpha virt. eigenvalues --    3.88470   4.08432   4.08495   4.09038   4.10378
 Alpha virt. eigenvalues --    4.10386   4.12436   4.12726   4.15996   4.16020
 Alpha virt. eigenvalues --    4.16140   4.16757   4.18425   4.26748   4.27098
 Alpha virt. eigenvalues --    4.33858   4.34672   4.34896   4.37146   4.40801
 Alpha virt. eigenvalues --    4.47842   4.53109   4.53224   4.75133   4.75223
 Alpha virt. eigenvalues --    5.01883   5.19148   5.39439   5.55755  37.68297
          Condensed to atoms (all electrons):
              1          2          3          4          5          6
     1  C    5.390650   0.232536   0.232740  -0.017309  -0.017263  -0.088629
     2  C    0.232536   5.389628  -0.017404   0.232945  -0.088555  -0.017263
     3  C    0.232740  -0.017404   5.390149  -0.088523   0.232926  -0.017314
     4  C   -0.017309   0.232945  -0.088523   5.390121  -0.017404   0.232740
     5  C   -0.017263  -0.088555   0.232926  -0.017404   5.389660   0.232526
     6  C   -0.088629  -0.017263  -0.017314   0.232740   0.232526   5.390654
     7  C    0.435911  -0.053337  -0.053372   0.014088   0.014075  -0.000801
     8  C   -0.053453   0.436460   0.014080  -0.053396  -0.000811   0.014114
     9  C   -0.053444   0.014065   0.436127  -0.000807  -0.053468   0.014106
    10  C    0.014104  -0.053467  -0.000807   0.436127   0.014064  -0.053442
    11  C    0.014117  -0.000811  -0.053396   0.014082   0.436456  -0.053454
    12  C   -0.000801   0.014074   0.014090  -0.053373  -0.053334   0.435916
    13  C    0.010856   0.018150  -0.083362  -0.000128  -0.002276  -0.000002
    14  C   -0.083562   0.011193  -0.002275   0.018235  -0.000001  -0.000129
    15  C    0.010942  -0.083390   0.018133  -0.002276  -0.000127  -0.000002
    16  C   -0.000128   0.018223  -0.000002   0.011070  -0.002275  -0.083477
    17  C   -0.000129  -0.000001   0.018237  -0.002275   0.011199  -0.083569
    18  C    0.018177  -0.000127   0.011142  -0.000002  -0.083557  -0.002275
    19  C   -0.000002  -0.002276  -0.000128  -0.083365   0.018151   0.010857
    20  C   -0.002272  -0.000002  -0.083659  -0.000127   0.011107   0.018200
    21  C   -0.083481  -0.002275   0.011073  -0.000002   0.018225  -0.000128
    22  C   -0.000002  -0.000127  -0.002276   0.018134  -0.083395   0.010948
    23  C    0.018198   0.011103  -0.000127  -0.083651  -0.000002  -0.002272
    24  C   -0.002275  -0.083550  -0.000002   0.011135  -0.000126   0.018175
    25  H    0.003251  -0.000236   0.001393   0.000002   0.000029  -0.000001
    26  H    0.001396   0.003248   0.000029  -0.000237  -0.000001   0.000002
    27  H    0.003250   0.001392  -0.000235   0.000029   0.000002  -0.000001
    28  H   -0.000001   0.000029   0.000002   0.001393  -0.000236   0.003251
    29  H    0.000002  -0.000001  -0.000237   0.000029   0.003248   0.001396
    30  H    0.001394   0.000029   0.003246  -0.000001  -0.000237   0.000002
    31  H    0.000029  -0.000001   0.001399   0.000002   0.003246  -0.000236
    32  H    0.000002  -0.000237  -0.000001   0.003246   0.000029   0.001394
    33  H   -0.000236   0.003246   0.000002   0.001398  -0.000001   0.000029
    34  H   -0.000236   0.000002   0.003246  -0.000001   0.001395   0.000029
    35  H   -0.000001   0.000002   0.000029  -0.000235   0.001392   0.003250
    36  H    0.000029   0.001395  -0.000001   0.003247   0.000002  -0.000236
    37  O   -0.000094   0.000033  -0.000022  -0.000024   0.000034  -0.000094
    38  H    0.002196   0.000648   0.001362  -0.000071   0.000098  -0.000128
    39  H   -0.000129   0.000104  -0.000071   0.001386   0.000633   0.002181
              7          8          9         10         11         12
     1  C    0.435911  -0.053453  -0.053444   0.014104   0.014117  -0.000801
     2  C   -0.053337   0.436460   0.014065  -0.053467  -0.000811   0.014074
     3  C   -0.053372   0.014080   0.436127  -0.000807  -0.053396   0.014090
     4  C    0.014088  -0.053396  -0.000807   0.436127   0.014082  -0.053373
     5  C    0.014075  -0.000811  -0.053468   0.014064   0.436456  -0.053334
     6  C   -0.000801   0.014114   0.014106  -0.053442  -0.053454   0.435916
     7  C    4.807499  -0.044106  -0.044073  -0.000111  -0.000111  -0.000002
     8  C   -0.044106   4.807171  -0.000110  -0.044160  -0.000002  -0.000111
     9  C   -0.044073  -0.000110   4.807024  -0.000002  -0.044166  -0.000111
    10  C   -0.000111  -0.044160  -0.000002   4.807013  -0.000110  -0.044072
    11  C   -0.000111  -0.000002  -0.044166  -0.000110   4.807198  -0.044110
    12  C   -0.000002  -0.000111  -0.000111  -0.044072  -0.044110   4.807498
    13  C    0.410149  -0.000455   0.014365  -0.000001   0.000073   0.000000
    14  C    0.014384   0.409973   0.000073  -0.000458   0.000000  -0.000001
    15  C    0.410203   0.014325  -0.000457   0.000073  -0.000001   0.000000
    16  C   -0.000001  -0.000460   0.000000   0.410015   0.000073   0.014370
    17  C   -0.000001   0.000000  -0.000458   0.000073   0.409968   0.014387
    18  C   -0.000462  -0.000001   0.410249   0.000000   0.014408   0.000073
    19  C    0.000000   0.000073  -0.000001   0.014363  -0.000455   0.410148
    20  C    0.000073   0.000000   0.014410  -0.000001   0.410032  -0.000462
    21  C    0.014368   0.000073   0.410012   0.000000  -0.000460  -0.000001
    22  C    0.000000  -0.000001   0.000073  -0.000457   0.014329   0.410199
    23  C   -0.000462   0.410035  -0.000001   0.014408   0.000000   0.000073
    24  C    0.000073   0.014404   0.000000   0.410253  -0.000001  -0.000462
    25  H   -0.035902   0.000014   0.001741   0.000000   0.000000   0.000000
    26  H    0.001742  -0.035894   0.000000   0.000014   0.000000   0.000000
    27  H   -0.035899   0.001742   0.000014   0.000000   0.000000   0.000000
    28  H    0.000000   0.000000   0.000000   0.001742   0.000014  -0.035903
    29  H    0.000000   0.000000   0.000014   0.000000  -0.035894   0.001742
    30  H    0.001742   0.000000  -0.035928   0.000000   0.000014   0.000000
    31  H    0.000000   0.000000   0.001740   0.000000  -0.035892   0.000014
    32  H    0.000000   0.000014   0.000000  -0.035928   0.000000   0.001742
    33  H    0.000014  -0.035892   0.000000   0.001740   0.000000   0.000000
    34  H    0.000014   0.000000  -0.035909   0.000000   0.001736   0.000000
[...]
     5  C    0.018155   0.011069   0.018224  -0.083420  -0.000002  -0.000127
     6  C    0.010919   0.018192  -0.000128   0.010978  -0.002269   0.018172
     7  C    0.000000   0.000073   0.014373   0.000000  -0.000462   0.000073
     8  C    0.000073   0.000000   0.000073  -0.000001   0.410035   0.014394
     9  C   -0.000001   0.014399   0.410011   0.000073  -0.000001   0.000000
    10  C    0.014365  -0.000001   0.000000  -0.000457   0.014396   0.410228
    11  C   -0.000455   0.410031  -0.000459   0.014329   0.000000  -0.000001
    12  C    0.410105  -0.000462  -0.000001   0.410160   0.000073  -0.000462
    13  C    0.000000  -0.000430   0.433086   0.000000  -0.000013   0.000001
    14  C    0.000001   0.000000  -0.000429   0.000000  -0.102233   0.009010
    15  C    0.000000   0.000001   0.009002   0.000000   0.009012  -0.000429
    16  C    0.433086   0.000001   0.000000   0.009002   0.009025  -0.102247
    17  C    0.009001  -0.102236  -0.000013   0.433170   0.000000   0.000001
    18  C    0.000001   0.433028  -0.102250  -0.000429   0.000000   0.000000
    19  C    5.186284  -0.000013   0.000000  -0.102050  -0.000430   0.009018
    20  C   -0.000013   5.186651   0.009026   0.009012   0.000000   0.000000
    21  C    0.000000   0.009026   5.186515   0.000001   0.000001   0.000000
    22  C   -0.102050   0.009012   0.000001   5.186174   0.000001  -0.000013
    23  C   -0.000430   0.000000   0.000001   0.000001   5.186636   0.433035
    24  C    0.009018   0.000000   0.000000  -0.000013   0.433035   5.186366
    25  H    0.000000   0.000003  -0.037512   0.000000   0.000000   0.000000
    26  H    0.000000   0.000000   0.000003   0.000000  -0.006859   0.000189
    27  H    0.000000   0.000000   0.000189   0.000000  -0.000204   0.000003
    28  H    0.350807   0.000000   0.000000  -0.006861   0.000003  -0.000205
    29  H   -0.000205  -0.006859   0.000000  -0.037540   0.000000   0.000000
    30  H    0.000000   0.000190   0.350824   0.000000   0.000000   0.000000
    31  H    0.000000   0.350809  -0.000205   0.000189   0.000000   0.000000
    32  H   -0.037531   0.000000   0.000000  -0.000204   0.000190  -0.006867
    33  H    0.000003   0.000000   0.000000   0.000000   0.350809  -0.037546
    34  H    0.000000  -0.037506  -0.006869   0.000003   0.000000   0.000000
    35  H   -0.006855  -0.000204   0.000000   0.350834   0.000000   0.000000
    36  H    0.000190   0.000000   0.000000   0.000000  -0.037506   0.350824
             25         26         27         28         29         30
     1  C    0.003249   0.001395   0.003247  -0.000001   0.000002   0.001394
     2  C   -0.000236   0.003249   0.001393   0.000029  -0.000001   0.000029
     3  C    0.001394   0.000029  -0.000235   0.000002  -0.000237   0.003246
     4  C    0.000002  -0.000237   0.000029   0.001394   0.000029  -0.000001
     5  C    0.000029  -0.000001   0.000002  -0.000236   0.003249  -0.000237
     6  C   -0.000001   0.000002  -0.000001   0.003249   0.001396   0.000002
     7  C   -0.035914   0.001743  -0.035909   0.000000   0.000000   0.001743
     8  C    0.000014  -0.035904   0.001741   0.000000   0.000000   0.000000
     9  C    0.001741   0.000000   0.000014   0.000000   0.000014  -0.035939
    10  C    0.000000   0.000014   0.000000   0.001742   0.000000   0.000000
    11  C    0.000000   0.000000   0.000000   0.000014  -0.035904   0.000014
    12  C    0.000000   0.000000   0.000000  -0.035914   0.001743   0.000000
    13  C    0.350807  -0.000205  -0.006855   0.000000   0.000000  -0.037532
    14  C    0.000189   0.350797  -0.037510   0.000000   0.000000   0.000003
    15  C   -0.006861  -0.037539   0.350834   0.000000   0.000000  -0.000204
    16  C    0.000000   0.000000   0.000000  -0.037513   0.000003   0.000000
    17  C    0.000000   0.000000   0.000000   0.000189   0.350796   0.000000
    18  C   -0.000205   0.000000   0.000000   0.000000   0.000189  -0.006867
    19  C    0.000000   0.000000   0.000000   0.350807  -0.000205   0.000000
    20  C    0.000003   0.000000   0.000000   0.000000  -0.006859   0.000190
    21  C   -0.037512   0.000003   0.000189   0.000000   0.000000   0.350824
    22  C    0.000000   0.000000   0.000000  -0.006861  -0.037540   0.000000
    23  C    0.000000  -0.006859  -0.000204   0.000003   0.000000   0.000000
    24  C    0.000000   0.000189   0.000003  -0.000205   0.000000   0.000000
    25  H    0.591279  -0.000011   0.006485   0.000000   0.000000  -0.004474
    26  H   -0.000011   0.591320  -0.004477   0.000000   0.000000   0.000000
    27  H    0.006485  -0.004477   0.591217   0.000000   0.000000  -0.000011
    28  H    0.000000   0.000000   0.000000   0.591283  -0.000011   0.000000
    29  H    0.000000   0.000000   0.000000  -0.000011   0.591321   0.000000
    30  H   -0.004474   0.000000  -0.000011   0.000000   0.000000   0.591299
    31  H    0.000000   0.000000   0.000000   0.000000   0.006492  -0.000011
    32  H    0.000000   0.000000   0.000000  -0.004474   0.000000   0.000000
    33  H    0.000000   0.006492  -0.000011   0.000000   0.000000   0.000000
    34  H   -0.000011   0.000000   0.000000   0.000000  -0.000011   0.006497
    35  H    0.000000   0.000000   0.000000   0.006485  -0.004477   0.000000
    36  H    0.000000  -0.000011   0.000000  -0.000011   0.000000   0.000000
             31         32         33         34         35         36
     1  C    0.000029   0.000002  -0.000236  -0.000236  -0.000001   0.000029
     2  C   -0.000001  -0.000237   0.003247   0.000002   0.000002   0.001396
     3  C    0.001399  -0.000001   0.000002   0.003246   0.000029  -0.000001
     4  C    0.000002   0.003246   0.001399  -0.000001  -0.000235   0.003246
     5  C    0.003247   0.000029  -0.000001   0.001396   0.001393   0.000002
     6  C   -0.000236   0.001394   0.000029   0.000029   0.003247  -0.000236
     7  C    0.000000   0.000000   0.000014   0.000014   0.000000   0.000000
     8  C    0.000000   0.000014  -0.035898   0.000000   0.000000   0.001736
     9  C    0.001740   0.000000   0.000000  -0.035914   0.000000   0.000000
    10  C    0.000000  -0.035939   0.001740   0.000000   0.000014  -0.035914
    11  C   -0.035898   0.000000   0.000000   0.001736   0.001741   0.000000
    12  C    0.000014   0.001743   0.000000   0.000000  -0.035908   0.000014
    13  C    0.000003   0.000000   0.000000   0.000190   0.000000   0.000000
    14  C    0.000000   0.000000  -0.006867   0.000000   0.000000  -0.000204
    15  C    0.000000   0.000000   0.000189   0.000000   0.000000   0.000003
    16  C    0.000000   0.350824  -0.000205   0.000000   0.000189  -0.006869
    17  C   -0.006867   0.000003   0.000000  -0.000204  -0.037509   0.000000
    18  C   -0.037546   0.000000   0.000000   0.350824   0.000003   0.000000
    19  C    0.000000  -0.037531   0.000003   0.000000  -0.006855   0.000190
    20  C    0.350809   0.000000   0.000000  -0.037506  -0.000204   0.000000
    21  C   -0.000205   0.000000   0.000000  -0.006869   0.000000   0.000000
    22  C    0.000189  -0.000204   0.000000   0.000003   0.350834   0.000000
    23  C    0.000000   0.000190   0.350809   0.000000   0.000000  -0.037506
    24  C    0.000000  -0.006867  -0.037546   0.000000   0.000000   0.350824
    25  H    0.000000   0.000000   0.000000  -0.000011   0.000000   0.000000
    26  H    0.000000   0.000000   0.006492   0.000000   0.000000  -0.000011
    27  H    0.000000   0.000000  -0.000011   0.000000   0.000000   0.000000
    28  H    0.000000  -0.004474   0.000000   0.000000   0.006485  -0.000011
    29  H    0.006492   0.000000   0.000000  -0.000011  -0.004477   0.000000
    30  H   -0.000011   0.000000   0.000000   0.006497   0.000000   0.000000
    31  H    0.591317   0.000000   0.000000  -0.004474  -0.000011   0.000000
    32  H    0.000000   0.591296  -0.000011   0.000000  -0.000011   0.006497
    33  H    0.000000  -0.000011   0.591317   0.000000   0.000000  -0.004474
    34  H   -0.004474   0.000000   0.000000   0.591202   0.000000   0.000000
    35  H   -0.000011  -0.000011   0.000000   0.000000   0.591215   0.000000
    36  H    0.000000   0.006497  -0.004474   0.000000   0.000000   0.591203
 Mulliken atomic charges:
              1
     1  C    0.013098
     2  C    0.013183
     3  C    0.012860
     4  C    0.012846
     5  C    0.013198
     6  C    0.013108
     7  C    0.144078
     8  C    0.144422
     9  C    0.144653
    10  C    0.144655
    11  C    0.144419
    12  C    0.144078
    13  C   -0.208683
    14  C   -0.208891
    15  C   -0.208684
    16  C   -0.208830
    17  C   -0.208892
    18  C   -0.208701
    19  C   -0.208685
    20  C   -0.208745
    21  C   -0.208830
    22  C   -0.208684
    23  C   -0.208744
    24  C   -0.208699
    25  H    0.130032
    26  H    0.130011
    27  H    0.130060
    28  H    0.130030
    29  H    0.130010
    30  H    0.130036
    31  H    0.130009
    32  H    0.130038
    33  H    0.130009
    34  H    0.130088
    35  H    0.130061
    36  H    0.130088
    37  O    0.000000
    38  H    0.000000
    39  H    0.000000
 Sum of Mulliken atomic charges =   0.00000
 Mulliken charges with hydrogens summed into heavy atoms:
              1
     1  C    0.013098
     2  C    0.013183
     3  C    0.012860
     4  C    0.012846
     5  C    0.013198
     6  C    0.013108
     7  C    0.144078
     8  C    0.144422
     9  C    0.144653
    10  C    0.144655
    11  C    0.144419
    12  C    0.144078
    13  C   -0.078651
    14  C   -0.078880
    15  C   -0.078624
    16  C   -0.078792
    17  C   -0.078882
    18  C   -0.078613
    19  C   -0.078655
    20  C   -0.078736
    21  C   -0.078794
    22  C   -0.078623
    23  C   -0.078735
    24  C   -0.078611
    37  O    0.000000
 Sum of Mulliken charges with hydrogens summed into heavy atoms =   0.00000
          Condensed to fragments (all electrons):
     1       0.000000
     2       0.000000
 Electronic spatial extent (au):  <R**2>=           6202.6540
 Charge=              0.0000 electrons
 Dipole moment (field-independent basis, Debye):
    X=              0.0000    Y=              0.0000    Z=              0.0036  Tot=              0.0036
 Quadrupole moment (field-independent basis, Debye-Ang):
   XX=           -116.4380   YY=           -116.4370   ZZ=           -141.4540
   XY=             -0.0109   XZ=              0.0020   YZ=              0.0059
 Traceless Quadrupole moment (field-independent basis, Debye-Ang):
   XX=              8.3383   YY=              8.3393   ZZ=            -16.6776
   XY=             -0.0109   XZ=              0.0020   YZ=              0.0059
 Octapole moment (field-independent basis, Debye-Ang**2):
  XXX=             -0.0239  YYY=             -0.1367  ZZZ=             84.7390  XYY=             -0.0078
  XXY=             -0.0456  XXZ=             23.3615  XZZ=             -0.0104  YZZ=             -0.0574
  YYZ=             23.2213  XYZ=             -0.0310
 Hexadecapole moment (field-independent basis, Debye-Ang**3):
 XXXX=          -3816.6110 YYYY=          -3817.1246 ZZZZ=           -180.6766 XXXY=              0.2537
 XXXZ=             -0.1060 YYYX=              0.1101 YYYZ=             -0.3096 ZZZX=             -0.1678
 ZZZY=             -0.4985 XXYY=          -1272.1824 XXZZ=           -802.0043 YYZZ=           -801.9930
 XXYZ=             -0.1043 YYXZ=             -0.0340 ZZXY=              0.1177
 N-N= 1.829800717752D+03 E-N=-5.794387802925D+03  KE= 9.130369414476D+02
 Counterpoise: doing MCBS calculation for fragment   2
 Basis read from rwf:  (6D, 7F)
 There are    19 symmetry adapted basis functions of A   symmetry.
 Integral buffers will be    131072 words long.
 Raffenetti 2 integral format.
 Two-electron integral symmetry is turned on.
    19 basis functions,    36 primitive gaussians,    19 cartesian basis functions
     5 alpha electrons        5 beta electrons
       nuclear repulsion energy         9.0882977746 Hartrees.
 NAtoms=   39 NActive=    3 NUniq=    3 SFac= 1.00D+00 NAtFMM=   50 NAOKFM=F Big=F
 One-electron integrals computed using PRISM.
 NBasis=    19 RedAO= T  NBF=    19
 NBsUse=    19 1.00D-06 NBFU=    19
 Harris functional with IExCor=  402 diagonalized for initial guess.
 ExpMin= 1.61D-01 ExpMax= 5.48D+03 ExpMxC= 8.25D+02 IAcc=1 IRadAn=         1 AccDes= 0.00D+00
 HarFok:  IExCor=  402 AccDes= 0.00D+00 IRadAn=         1 IDoV= 1
 ScaDFX=  1.000000  1.000000  1.000000  1.000000
 FoFCou: FMM=F IPFlag=           0 FMFlag=      100000 FMFlg1=           0
         NFxFlg=           0 DoJE=T BraDBF=F KetDBF=T FulRan=T
         Omega=  0.000000  0.000000  1.000000  0.000000  0.000000 ICntrl=     500 IOpCl=  0
         NMat0=    1 NMatS0=    1 NMatT0=    0 NMatD0=    1 NMtDS0=    0 NMtDT0=    0
         I1Cent=           4 NGrid=           0.
 Petite list used in FoFCou.
 Initial guess orbital symmetries:
       Occupied  (A) (A) (A) (A) (A)
       Virtual   (A) (A) (A) (A) (A) (A) (A) (A) (A) (A) (A) (A)
                 (A) (A)
 The electronic state of the initial guess is 1-A.
 Requested convergence on RMS density matrix=1.00D-08 within  64 cycles.
 Requested convergence on MAX density matrix=1.00D-06.
 Requested convergence on             energy=1.00D-06.
 No special actions if energy rises.
 Keep R1 ints in memory in canonical form, NReq=911956.
 Integral accuracy reduced to 1.0D-05 until final iterations.
 Initial convergence to 1.0D-05 achieved.  Increase integral accuracy.
 SCF Done:  E(RB3LYP) =  -76.4089455507     A.U. after    9 cycles
             Convg  =    0.7209D-08             -V/T =  2.0078
 QCSCF skips out because SCF is already converged.

 **********************************************************************

            Population analysis using the SCF density.

 **********************************************************************

 Orbital symmetries:
       Occupied  (A) (A) (A) (A) (A)
       Virtual   (A) (A) (A) (A) (A) (A) (A) (A) (A) (A) (A) (A)
                 (A) (A)
 The electronic state is 1-A.
 Alpha  occ. eigenvalues --  -19.13850  -0.99838  -0.51609  -0.37344  -0.29139
 Alpha virt. eigenvalues --    0.06249   0.14793   0.77022   0.86237   0.89063
 Alpha virt. eigenvalues --    0.89566   1.06522   1.19565   1.72735   1.74684
 Alpha virt. eigenvalues --    1.77910   2.28043   2.57589   3.55078
          Condensed to atoms (all electrons):
              1          2          3
     1  O    8.288592   0.242332   0.242332
     2  H    0.242332   0.394805  -0.023764
     3  H    0.242332  -0.023764   0.394805
 Mulliken atomic charges:
              1
     1  C    0.000000
     2  C    0.000000
     3  C    0.000000
     4  C    0.000000
     5  C    0.000000
     6  C    0.000000
     7  C    0.000000
     8  C    0.000000
     9  C    0.000000
    10  C    0.000000
    11  C    0.000000
    12  C    0.000000
    13  C    0.000000
    14  C    0.000000
    15  C    0.000000
    16  C    0.000000
    17  C    0.000000
    18  C    0.000000
    19  C    0.000000
    20  C    0.000000
    21  C    0.000000
    22  C    0.000000
    23  C    0.000000
    24  C    0.000000
    25  H    0.000000
    26  H    0.000000
    27  H    0.000000
    28  H    0.000000
    29  H    0.000000
    30  H    0.000000
    31  H    0.000000
    32  H    0.000000
    33  H    0.000000
    34  H    0.000000
    35  H    0.000000
    36  H    0.000000
    37  O   -0.773255
    38  H    0.386627
    39  H    0.386628
 Sum of Mulliken atomic charges =   0.00000
 Mulliken charges with hydrogens summed into heavy atoms:
              1
     1  C    0.000000
     2  C    0.000000
     3  C    0.000000
     4  C    0.000000
     5  C    0.000000
     6  C    0.000000
     7  C    0.000000
     8  C    0.000000
     9  C    0.000000
    10  C    0.000000
    11  C    0.000000
    12  C    0.000000
    13  C    0.000000
    14  C    0.000000
    15  C    0.000000
    16  C    0.000000
    17  C    0.000000
    18  C    0.000000
    19  C    0.000000
    20  C    0.000000
    21  C    0.000000
    22  C    0.000000
    23  C    0.000000
    24  C    0.000000
    37  O    0.000000
 Sum of Mulliken charges with hydrogens summed into heavy atoms =   0.00000
          Condensed to fragments (all electrons):
     1       0.000000
     2       0.000000
 Electronic spatial extent (au):  <R**2>=            375.4123
 Charge=              0.0000 electrons
 Dipole moment (field-independent basis, Debye):
    X=              0.0021    Y=             -0.0079    Z=             -2.1044  Tot=              2.1045
 Quadrupole moment (field-independent basis, Debye-Ang):
   XX=             -4.3528   YY=             -7.1646   ZZ=            -19.0847
   XY=              0.3357   XZ=              0.0092   YZ=             -0.0070
 Traceless Quadrupole moment (field-independent basis, Debye-Ang):
   XX=              5.8479   YY=              3.0361   ZZ=             -8.8840
   XY=              0.3357   XZ=              0.0092   YZ=             -0.0070
 Octapole moment (field-independent basis, Debye-Ang**2):
  XXX=              0.0174  YYY=              0.1273  ZZZ=           -118.3111  XYY=              0.0030
  XXY=              0.0216  XXZ=            -14.7559  XZZ=              0.0425  YZZ=              0.0674
  YYZ=            -22.6537  XYZ=              0.9430
 Hexadecapole moment (field-independent basis, Debye-Ang**3):
 XXXX=             -6.0861 YYYY=             -5.2469 ZZZZ=           -623.7959 XXXY=              0.0289
 XXXZ=              0.0570 YYYX=             -0.1294 YYYZ=              0.4002 ZZZX=              0.1965
 ZZZY=              0.6001 XXYY=             -2.0970 XXZZ=            -51.4366 YYZZ=            -73.5816
 XXYZ=              0.0760 YYXZ=              0.0116 ZZXY=              2.6439
 N-N= 9.088297774572D+00 E-N=-1.987555046269D+02  KE= 7.582055617409D+01
 Counterpoise: corrected energy =    -998.307994630954
 Counterpoise: BSSE energy =       0.001823383787
 1\1\GINC-COMPUTE-0-2\SP\RB3LYP\6-31G(d)\C24H14O1\VIJI\11-Jun-2025\0\\#
  b3lyp/6-31g(d) geom=connectivity counterpoise=2 scf=xqc\\Wac_coup\\0,
 1\C,0,-1.340843,-0.490472,-0.198325\C,0,-0.24517,-1.406887,-0.200028\C
 ,0,-1.095585,0.917096,-0.198555\C,0,1.095734,-0.916302,-0.198827\C,0,0
 .245301,1.407664,-0.199299\C,0,1.340971,0.491272,-0.197875\C,0,-2.6763
 78,-0.979101,-0.198841\C,0,-0.489446,-2.807118,-0.202599\C,0,-2.186476
 ,1.828787,-0.198769\C,0,2.186628,-1.82801,-0.199289\C,0,0.489577,2.807
 886,-0.201173\C,0,2.676502,0.979891,-0.19798\C,0,-3.748552,-0.041749,-
 0.197435\C,0,-1.837162,-3.267085,-0.203303\C,0,-2.890255,-2.387107,-0.
 201138\C,0,3.512693,-1.309394,-0.197536\C,0,1.837289,3.267859,-0.20144
 7\C,0,-1.911355,3.225893,-0.20007\C,0,3.748674,0.042538,-0.196856\C,0,
 -0.622663,3.6972,-0.201483\C,0,-3.512543,1.310175,-0.197463\C,0,2.8903
 87,2.387893,-0.199568\C,0,0.622802,-3.696427,-0.203136\C,0,1.911494,-3
 .225117,-0.201276\H,0,-4.768685,-0.417847,-0.196512\H,0,-2.021339,-4.3
 38626,-0.204228\H,0,-3.912102,-2.758524,-0.200801\H,0,4.768804,0.41864
 2,-0.195603\H,0,2.021459,4.339403,-0.20182\H,0,-4.344966,2.009552,-0.1
 95864\H,0,-0.433363,4.767759,-0.201526\H,0,4.345123,-2.008763,-0.19613
 4\H,0,0.433507,-4.766985,-0.203719\H,0,-2.74734,3.921108,-0.199172\H,0
 ,3.912233,2.759312,-0.198901\H,0,2.747479,-3.920334,-0.200564\O,0,-0.0
 01177,-0.005648,3.23539\H,0,-0.753863,-0.096612,2.632253\H,0,0.752717,
 0.08079,2.6331\\Version=AM64L-G09RevB.01\State=1-A\HF=-76.4089456\RMSD
 =7.209e-09\Dipole=0.0006738,-0.0012278,-0.9713273\Quadrupole=10.965249
 ,9.4710024,-20.4362514,0.1714947,0.0083739,0.0026316\PG=C01 [X(C24H14O
 1)]\\@


 SUCCESS-- IF YOU HAVE TRIED TO DO SOMETHING AND FAILED
           YOU ARE BETTER OFF THAN IF YOU HAD TRIED TO DO
           NOTHING AND SUCCEEDED.

                   -- FROM THE BACK OF A SUGAR PACKET
 Job cpu time:  0 days  1 hours 10 minutes 28.3 seconds.
 File lengths (MBytes):  RWF=    132 Int=      0 D2E=      0 Chk=     22 Scr=      1
 Normal termination of Gaussian 09 at Wed Jun 11 15:45:22 2025.
