 Entering Gaussian System, Link 0=g09
 Input=WaC4-cp.gjf
 Output=WaC4-cp.log
 Initial command:
 /share/apps/g09/l1.exe /scratch/Gau-9488.inp -scrdir=/scratch/
 Entering Link 1 = /share/apps/g09/l1.exe PID=      9489.
  
 Copyright (c) 1988,1990,1992,1993,1995,1998,2003,2009,2010,
            Gaussian, Inc.  All Rights Reserved.
  
 This is part of the Gaussian(R) 09 program.  It is based on
 the Gaussian(R) 03 system (copyright 2003, Gaussian, Inc.),
 the Gaussian(R) 98 system (copyright 1998, Gaussian, Inc.),
 the Gaussian(R) 94 system (copyright 1995, Gaussian, Inc.),
 the Gaussian 92(TM) system (copyright 1992, Gaussian, Inc.),
 the Gaussian 90(TM) system (copyright 1990, Gaussian, Inc.),
 the Gaussian 88(TM) system (copyright 1988, Gaussian, Inc.),
 the Gaussian 86(TM) system (copyright 1986, Carnegie Mellon
 University), and the Gaussian 82(TM) system (copyright 1983,
 Carnegie Mellon University). Gaussian is a federally registered
 trademark of Gaussian, Inc.
  
 This software contains proprietary and confidential information,
 including trade secrets, belonging to Gaussian, Inc.
  
 This software is provided under written license and may be
 used, copied, transmitted, or stored only in accord with that
 written license.
  
 The following legend is applicable only to US Government
 contracts under FAR:
  
                    RESTRICTED RIGHTS LEGEND
  
 Use, reproduction and disclosure by the US Government is
 subject to restrictions as set forth in subparagraphs (a)
 and (c) of the Commercial Computer Software - Restricted
 Rights clause in FAR 52.227-19.
  
 Gaussian, Inc.
 340 Quinnipiac St., Bldg. 40, Wallingford CT 06492
  
  
 ---------------------------------------------------------------
 Warning -- This program may not be used in any manner that
 competes with the business of Gaussian, Inc. or will provide
 assistance to any competitor of Gaussian, Inc.  The licensee
 of this program is prohibited from giving any competitor of
 Gaussian, Inc. access to this program.  By using this program,
 the user acknowledges that Gaussian, Inc. is engaged in the
 business of creating and licensing software in the field of
 computational chemistry and represents and warrants to the
 licensee that it is not a competitor of Gaussian, Inc. and that
 it will not use this program in any manner prohibited above.
 ---------------------------------------------------------------
  

 Cite this work as:
 Gaussian 09, Revision B.01,
 M. J. Frisch, G. W. Trucks, H. B. Schlegel, G. E. Scuseria, 
 M. A. Robb, J. R. Cheeseman, G. Scalmani, V. Barone, B. Mennucci, 
 G. A. Petersson, H. Nakatsuji, M. Caricato, X. Li, H. P. Hratchian, 
 A. F. Izmaylov, J. Bloino, G. Zheng, J. L. Sonnenberg, M. Hada, 
 M. Ehara, K. Toyota, R. Fukuda, J. Hasegawa, M. Ishida, T. Nakajima, 
 Y. Honda, O. Kitao, H. Nakai, T. Vreven, J. A. Montgomery, Jr., 
 J. E. Peralta, F. Ogliaro, M. Bearpark, J. J. Heyd, E. Brothers, 
 K. N. Kudin, V. N. Staroverov, T. Keith, R. Kobayashi, J. Normand, 
 K. Raghavachari, A. Rendell, J. C. Burant, S. S. Iyengar, J. Tomasi, 
 M. Cossi, N. Rega, J. M. Millam, M. Klene, J. E. Knox, J. B. Cross, 
 V. Bakken, C. Adamo, J. Jaramillo, R. Gomperts, R. E. Stratmann, 
 O. Yazyev, A. J. Austin, R. Cammi, C. Pomelli, J. W. Ochterski, 
 R. L. Martin, K. Morokuma, V. G. Zakrzewski, G. A. Voth, 
 P. Salvador, J. J. Dannenberg, S. Dapprich, A. D. Daniels, 
 O. Farkas, J. B. Foresman, J. V. Ortiz, J. Cioslowski, 
 and D. J. Fox, Gaussian, Inc., Wallingford CT, 2010.
 
 ******************************************
 Gaussian 09:  AM64L-G09RevB.01 12-Aug-2010
                12-Jun-2025 
 ******************************************
 %chk=WaC4-cp.chk
 %nprocshared=8
 Will use up to    8 processors via shared memory.
 %mem=20GB
 ---------------------------------------------------------
 # b3lyp/6-31g(d) geom=connectivity counterpoise=2 scf=xqc
 ---------------------------------------------------------
 1/38=1,57=2,62=2/1;
 2/12=2,17=6,18=5,40=1/2;
 1/38=1,53=5172,62=2/22;
 3/5=1,6=6,7=1,11=2,16=1,25=1,30=1,74=-5/1,2,3;
 4//1;
 5/5=2,8=3,13=1,38=5/2,8;
 6/7=2,8=2,9=2,10=2,28=1/1;
 1/53=4052,62=2,63=1/22;
 3/5=7,6=11,7=1,11=2,16=1,25=1,30=1,74=-5,82=7/1,2,3;
 4//1;
 5/5=2,8=3,13=1,38=5/2,8;
 6/7=2,8=2,9=2,10=2,28=1/1;
 1/53=3042,62=2,63=2/22;
 3/5=7,6=11,7=1,11=2,16=1,25=1,30=1,74=-5,82=7/1,2,3;
 4//1;
 5/5=2,8=3,13=1,38=5/2,8;
 6/7=2,8=2,9=2,10=2,28=1/1;
 1/53=2032,62=2,63=3/22;
 3/5=7,6=11,7=1,11=2,16=1,25=1,30=1,74=-5,82=7/1,2,3;
 4//1;
 5/5=2,8=3,13=1,38=5/2,8;
 6/7=2,8=2,9=2,10=2,28=1/1;
 1/53=1022,62=2,63=4/22;
 3/5=7,6=11,7=1,11=2,16=1,25=1,30=1,74=-5,82=7/1,2,3;
 4//1;
 5/5=2,8=3,13=1,38=5/2,8;
 6/7=2,8=2,9=2,10=2,28=1/1;
 1/53=5014,62=2,63=5/22;
 99/5=1,9=1/99;
 -------
 WaC4-cp
 -------
 Symbolic Z-matrix:
 Charge =  0 Multiplicity = 1 in supermolecule
 Charge =  0 Multiplicity = 1 in fragment  1.
 Charge =  0 Multiplicity = 1 in fragment  2.
 C(Fragment=1)         1.00944  -0.01303  -0.01171 
 C(Fragment=1)         0.30715   1.22972  -0.008 
 C(Fragment=1)         0.28466  -1.24246  -0.00794 
 C(Fragment=1)        -1.12035   1.2429   -0.00041 
 C(Fragment=1)        -1.14265  -1.22975  -0.00033 
 C(Fragment=1)        -1.84536   0.01299   0.00345 
 C(Fragment=1)         2.43042  -0.02693  -0.01909 
 C(Fragment=1)         1.0297    2.454    -0.01184 
 C(Fragment=1)         0.98589  -2.47898  -0.01172 
 C(Fragment=1)        -1.82      2.48043   0.00328 
 C(Fragment=1)        -1.86444  -2.45438   0.00349 
 C(Fragment=1)        -3.26689   0.02577   0.01106 
 C(Fragment=1)         3.11026  -1.27935  -0.02271 
 C(Fragment=1)         2.45334   2.40916  -0.01917 
 C(Fragment=1)         3.12923   1.21458  -0.02265 
 C(Fragment=1)        -3.24391   2.46253   0.01092 
 C(Fragment=1)        -3.28776  -2.41082   0.01114 
 C(Fragment=1)         0.23609  -3.6898   -0.00782 
 C(Fragment=1)        -3.94079   1.28029   0.01465 
 C(Fragment=1)        -1.13628  -3.67821  -0.00046 
 C(Fragment=1)         2.41009  -2.46019  -0.01921 
 C(Fragment=1)        -3.96343  -1.21629   0.01477 
 C(Fragment=1)         0.30213   3.67815  -0.00808 
 C(Fragment=1)        -1.07022   3.69107  -0.00077 
 H(Fragment=1)         4.19729  -1.27676  -0.02816 
 H(Fragment=1)         3.00188   3.34857  -0.02221 
 H(Fragment=1)         4.21572   1.18684  -0.02774 
 H(Fragment=1)        -5.02822   1.2872    0.02044 
 H(Fragment=1)        -3.83755  -3.34909   0.01408 
 H(Fragment=1)         2.94222  -3.40873  -0.02217 
 H(Fragment=1)        -1.69051  -4.61387   0.00244 
 H(Fragment=1)        -3.77682   3.4105    0.01375 
 H(Fragment=1)         0.85683   4.61362  -0.01116 
 H(Fragment=1)         0.77405  -4.63489  -0.01081 
 H(Fragment=1)        -5.05079  -1.20356   0.02057 
 H(Fragment=1)        -1.60764   4.63648   0.00201 
 O(Fragment=2)         6.46558  -0.11118   0.05584 
 H(Fragment=2)         6.74546   0.47587  -0.66266 
 H(Fragment=2)         6.61561   0.40876   0.85978 
 
                          Input orientation:                          
 ---------------------------------------------------------------------
 Center     Atomic      Atomic             Coordinates (Angstroms)
 Number     Number       Type             X           Y           Z
 ---------------------------------------------------------------------
      1          6           0        1.009440   -0.013025   -0.011708
      2          6           0        0.307146    1.229715   -0.008001
      3          6           0        0.284662   -1.242458   -0.007938
      4          6           0       -1.120348    1.242900   -0.000414
      5          6           0       -1.142649   -1.229746   -0.000325
      6          6           0       -1.845357    0.012989    0.003445
      7          6           0        2.430422   -0.026929   -0.019086
      8          6           0        1.029699    2.454004   -0.011837
      9          6           0        0.985891   -2.478980   -0.011715
     10          6           0       -1.819999    2.480433    0.003283
     11          6           0       -1.864443   -2.454382    0.003489
     12          6           0       -3.266890    0.025771    0.011057
     13          6           0        3.110256   -1.279353   -0.022714
     14          6           0        2.453335    2.409164   -0.019166
     15          6           0        3.129228    1.214578   -0.022654
     16          6           0       -3.243911    2.462527    0.010915
     17          6           0       -3.287763   -2.410817    0.011144
     18          6           0        0.236092   -3.689801   -0.007815
     19          6           0       -3.940790    1.280290    0.014648
     20          6           0       -1.136275   -3.678211   -0.000464
     21          6           0        2.410091   -2.460188   -0.019207
     22          6           0       -3.963430   -1.216293    0.014771
     23          6           0        0.302129    3.678148   -0.008079
     24          6           0       -1.070224    3.691074   -0.000769
     25          1           0        4.197286   -1.276762   -0.028164
     26          1           0        3.001881    3.348570   -0.022208
     27          1           0        4.215716    1.186839   -0.027742
     28          1           0       -5.028218    1.287197    0.020435
     29          1           0       -3.837552   -3.349089    0.014075
     30          1           0        2.942222   -3.408732   -0.022166
     31          1           0       -1.690509   -4.613872    0.002435
     32          1           0       -3.776816    3.410499    0.013746
     33          1           0        0.856826    4.613615   -0.011161
     34          1           0        0.774047   -4.634886   -0.010805
     35          1           0       -5.050795   -1.203559    0.020568
     36          1           0       -1.607641    4.636481    0.002013
     37          8           0        6.465577   -0.111175    0.055836
     38          1           0        6.745464    0.475870   -0.662656
     39          1           0        6.615607    0.408764    0.859783
 ---------------------------------------------------------------------
                    Distance matrix (angstroms):
                    1          2          3          4          5
     1  C    0.000000
     2  C    1.427457   0.000000
     3  C    1.427173   2.472275   0.000000
     4  C    2.472544   1.427575   2.855016   0.000000
     5  C    2.472251   2.854980   1.427388   2.472747   0.000000
     6  C    2.854956   2.472614   2.472500   1.427702   1.427656
     7  C    1.421069   2.467302   2.466155   3.771045   3.770140
     8  C    2.467112   1.421612   3.770799   2.467713   4.276592
     9  C    2.466067   3.770295   1.421521   4.276536   2.468076
    10  C    3.771377   2.467624   4.276639   1.421623   3.771504
    11  C    3.770896   4.276506   2.467295   3.771417   1.421525
    12  C    4.276567   3.771416   3.771245   2.467626   2.467560
    13  C    2.452985   3.762056   2.825873   4.925471   4.253253
    14  C    2.819909   2.448949   4.247071   3.759220   5.115967
    15  C    2.449618   2.822161   3.758829   4.249729   4.921804
    16  C    4.921368   3.759014   5.116454   2.448906   4.248330
    17  C    4.920964   5.116367   3.758676   4.248231   2.448790
    18  C    3.757228   4.920029   2.447825   5.115811   2.820080
    19  C    5.116457   4.248297   4.921302   2.820730   3.759002
    20  C    4.247094   5.115785   2.819931   4.921137   2.448473
    21  C    2.819661   4.247103   2.449580   5.116367   3.759828
    22  C    5.116443   4.921513   4.248233   3.759119   2.820853
    23  C    3.758332   2.448438   4.920637   2.820272   5.116138
    24  C    4.247996   2.820548   5.116200   2.448687   4.921353
    25  H    3.429237   4.627745   3.912827   5.884445   5.340215
    26  H    3.907717   3.428023   5.334887   4.628941   6.175645
    27  H    3.423468   3.908855   4.621154   5.336428   5.878155
    28  H    6.176158   5.335749   5.884442   3.908177   4.629587
    29  H    5.884158   6.176120   4.629366   5.335707   3.428458
    30  H    3.907247   5.334699   3.428640   6.175972   4.629755
    31  H    5.334578   6.175617   3.907408   5.884460   3.428187
    32  H    5.884676   4.629799   6.176251   3.428631   5.335814
    33  H    4.629156   3.428256   5.883959   3.907819   6.175993
    34  H    4.627852   5.883158   3.427546   6.175533   3.907533
    35  H    6.176153   5.884655   5.335675   4.629688   3.908290
    36  H    5.335467   3.908013   6.175988   3.428389   5.884628
    37  O    5.457438   6.303042   6.283914   7.706033   7.690218
    38  H    5.793507   6.515274   6.717386   7.930819   8.097539
    39  H    5.689157   6.420568   6.600026   7.828200   7.975904
                    6          7          8          9         10
     6  C    0.000000
     7  C    4.276025   0.000000
     8  C    3.771569   2.849054   0.000000
     9  C    3.771751   2.845923   4.933179   0.000000
    10  C    2.467574   4.934921   2.849861   5.698159   0.000000
    11  C    2.467445   4.933447   5.698118   2.850481   4.935015
    12  C    1.421611   5.697635   4.935333   4.935630   2.849372
    13  C    5.121419   1.425045   4.273967   2.439703   6.200329
    14  C    4.921475   2.436201   1.424361   5.103665   4.273987
    15  C    5.117714   1.424669   2.438097   4.270408   5.108611
    16  C    2.820682   6.196479   4.273679   6.504631   1.424045
    17  C    2.820537   6.195278   6.504421   4.274259   5.106733
    18  C    4.247730   4.269876   6.194850   1.424184   6.503801
    19  C    2.448881   6.504022   5.107256   6.197176   2.436848
    20  C    3.758693   5.104266   6.503509   2.437595   6.196482
    21  C    4.921987   2.433344   5.104392   1.424344   6.504145
    22  C    2.448979   6.503620   6.197026   5.107921   4.273197
    23  C    4.247967   4.272862   1.424044   6.194979   2.436817
    24  C    3.758877   5.106702   2.437241   6.503637   1.424019
    25  H    6.178834   2.164249   4.894128   3.429090   7.094027
    26  H    5.884087   3.423532   2.165608   6.166414   4.899473
    27  H    6.173775   2.158838   3.428799   4.885720   6.172860
    28  H    3.428483   7.573625   6.169347   7.096100   3.422978
    29  H    3.908007   7.094036   7.574080   4.901363   6.168789
    30  H    5.884704   3.420313   6.166808   2.166051   7.573748
    31  H    4.629452   6.166245   7.573282   3.423606   7.095487
    32  H    3.908160   7.095547   4.900829   7.574298   2.166625
    33  H    5.335519   4.900093   2.166519   7.093769   3.422874
    34  H    5.335187   4.896623   7.093498   2.166289   7.573443
    35  H    3.428573   7.573285   7.095860   6.170034   4.900014
    36  H    4.629599   6.168775   3.423297   7.573400   2.166481
    37  O    8.312027   4.036730   6.011114   5.969759   8.681588
    38  H    8.629030   4.391649   6.083301   6.505962   8.822069
    39  H    8.513393   4.298606   6.012079   6.386883   8.728394
                   11         12         13         14         15
    11  C    0.000000
    12  C    2.849223   0.000000
    13  C    5.111654   6.509415   0.000000
    14  C    6.503676   6.196971   3.746560   0.000000
    15  C    6.196669   6.505745   2.494003   1.372545   0.000000
    16  C    5.106758   2.436864   7.374160   5.697575   6.494259
    17  C    1.424007   2.436677   6.497384   7.496222   7.370373
    18  C    2.436932   5.106536   3.751173   6.489505   5.694154
    19  C    4.273069   1.424069   7.501361   6.493099   7.070422
    20  C    1.424079   4.273071   4.877298   7.066950   6.491101
    21  C    4.274598   6.197501   1.372813   4.869544   3.744473
    22  C    2.436953   1.424045   7.074066   7.370208   7.497755
    23  C    6.504006   5.106674   5.697597   2.497625   3.749917
    24  C    6.196566   4.273164   6.494770   3.749547   4.875337
    25  H    6.175140   7.577074   1.087047   4.077683   2.710637
    26  H    7.573376   7.095040   4.629192   1.087840   2.137788
    27  H    7.087157   7.572250   2.702623   2.144793   1.086854
    28  H    4.899916   2.166463   8.533686   7.565316   8.157883
    29  H    2.166511   3.422769   7.249634   8.528414   8.328531
    30  H    4.900558   7.095772   2.135999   5.838402   4.627091
    31  H    2.166484   4.900137   5.845254   8.154443   7.563156
    32  H    6.168801   3.422925   8.332335   6.310193   7.246850
    33  H    7.573777   6.168779   6.309132   2.721858   4.088691
    34  H    3.422927   6.168580   4.088718   7.241458   6.305811
    35  H    3.423111   2.166486   8.161518   8.328584   8.530066
    36  H    7.095512   4.900187   7.566786   4.631729   5.843625
    37  O    8.653473   9.733533   3.553729   4.738757   3.590962
    38  H    9.119245  10.045084   4.087184   4.751218   3.745992
    39  H    8.991223   9.926266   3.989489   4.700921   3.685495
                   16         17         18         19         20
    16  C    0.000000
    17  C    4.873541   0.000000
    18  C    7.068374   3.748828   0.000000
    19  C    1.372348   3.748430   6.492199   0.000000
    20  C    6.492374   2.497063   1.372436   5.696689   0.000000
    21  C    7.496784   5.698149   2.497669   7.370618   3.749752
    22  C    3.748525   1.372380   4.873883   2.496686   3.748877
    23  C    3.748666   7.068464   7.368245   4.873664   7.495671
    24  C    2.496874   6.492357   7.495587   3.748635   7.369581
    25  H    8.327978   7.570574   4.638343   8.530453   5.849325
    26  H    6.308414   8.528263   7.562305   7.244296   8.154781
    27  H    7.568019   8.321468   6.294396   8.157151   7.232791
    28  H    2.136643   4.087123   7.244603   1.087465   6.308957
    29  H    5.841858   1.087488   4.087926   4.630530   2.721292
    30  H    8.528835   6.309489   2.720725   8.328513   4.087448
    31  H    7.244898   2.721167   2.136774   6.309125   1.087495
    32  H    1.087496   5.841823   8.155866   2.136511   7.564553
    33  H    4.630735   8.156026   8.326586   5.841989   8.528009
    34  H    8.155840   4.630903   1.087470   7.564367   2.136507
    35  H    4.087188   2.136783   5.842378   2.720598   4.631178
    36  H    2.720944   7.244812   8.527979   4.087513   8.328043
    37  O   10.044905  10.020878   7.184504  10.499064   8.397325
    38  H   10.207258  10.461960   7.755872  10.737870   8.934019
    39  H   10.106860  10.331842   7.632115  10.625974   8.805400
                   21         22         23         24         25
    21  C    0.000000
    22  C    6.493859   0.000000
    23  C    6.490208   6.492385   0.000000
    24  C    7.067599   5.696765   1.372433   0.000000
    25  H    2.143512   8.161053   6.302681   7.240636   0.000000
    26  H    5.838826   8.327959   2.719831   4.086540   4.777314
    27  H    4.069541   8.524980   4.639307   5.849195   2.463670
    28  H    8.329040   2.720527   5.842094   4.630852   9.575290
    29  H    6.310649   2.136508   8.155949   7.564537   8.297888
    30  H    1.087616   7.245425   7.562682   8.155209   2.473968
    31  H    4.631819   4.087770   8.528090   8.328079   6.767819
    32  H    8.529002   4.630554   4.087775   2.721135   9.249782
    33  H    7.242333   7.564613   1.087565   2.136519   6.771669
    34  H    2.721401   5.842185   8.326419   8.527781   4.795400
    35  H    7.566077   1.087455   7.244700   6.308949   9.248499
    36  H    8.155080   6.309110   2.136756   1.087483   8.286406
    37  O    4.687266  10.487476   7.235409   8.440888   2.551626
    38  H    5.275407  10.862906   7.224931   8.477064   3.157136
    39  H    5.166224  10.736428   7.162546   8.401554   3.078591
                   26         27         28         29         30
    26  H    0.000000
    27  H    2.479215   0.000000
    28  H    8.290571   9.244604   0.000000
    29  H    9.572763   9.242917   4.786739   0.000000
    30  H    6.757565   4.768762   9.251026   6.780133   0.000000
    31  H    9.242273   8.278445   6.779620   2.491908   4.786979
    32  H    6.779075   8.296201   2.464643   6.759861   9.573331
    33  H    2.490326   4.798459   6.760163   9.243510   8.288972
    34  H    8.288483   6.762977   8.290858   4.787561   2.490897
    35  H    9.250368   9.569982   2.490858   2.464812   8.291739
    36  H    4.786125   6.768486   4.787315   8.291078   9.242688
    37  O    4.896235   2.598788  11.578602  10.800014   4.826385
    38  H    4.762037   2.703372  11.821356  11.273354   5.474030
    39  H    4.741243   2.674430  11.707041  11.140252   5.370742
                   31         32         33         34         35
    31  H    0.000000
    32  H    8.291160   0.000000
    33  H    9.572649   4.787353   0.000000
    34  H    2.464681   9.243331   9.248871   0.000000
    35  H    4.787701   4.786711   8.290989   6.760457   0.000000
    36  H    9.250724   2.491684   2.464608   9.572400   6.779507
    37  O    9.316591  10.831001   7.333909   7.270620  11.568119
    38  H    9.874890  10.944768   7.226440   7.886860  11.934781
    39  H    9.744408  10.850283   7.183514   7.766605  11.807150
                   36         37         38         39
    36  H    0.000000
    37  O    9.365895   0.000000
    38  H    9.355578   0.969118   0.000000
    39  H    9.286074   0.969111   1.529440   0.000000
 Stoichiometry    C24H14O
 Framework group  C1[X(C24H14O)]
 Deg. of freedom   111
 Full point group                 C1      NOp   1
 Largest Abelian subgroup         C1      NOp   1
 Largest concise Abelian subgroup C1      NOp   1
                         Standard orientation:                         
 ---------------------------------------------------------------------
 Center     Atomic      Atomic             Coordinates (Angstroms)
 Number     Number       Type             X           Y           Z
 ---------------------------------------------------------------------
      1          6           0        1.009440   -0.013025   -0.011708
      2          6           0        0.307146    1.229715   -0.008001
      3          6           0        0.284662   -1.242458   -0.007938
      4          6           0       -1.120348    1.242900   -0.000414
      5          6           0       -1.142649   -1.229746   -0.000325
      6          6           0       -1.845357    0.012989    0.003445
      7          6           0        2.430422   -0.026929   -0.019086
      8          6           0        1.029699    2.454004   -0.011837
      9          6           0        0.985891   -2.478980   -0.011715
     10          6           0       -1.819999    2.480433    0.003283
     11          6           0       -1.864443   -2.454382    0.003489
     12          6           0       -3.266890    0.025771    0.011057
     13          6           0        3.110256   -1.279353   -0.022714
     14          6           0        2.453335    2.409164   -0.019166
     15          6           0        3.129228    1.214578   -0.022654
     16          6           0       -3.243911    2.462527    0.010915
     17          6           0       -3.287763   -2.410817    0.011144
     18          6           0        0.236092   -3.689801   -0.007815
     19          6           0       -3.940790    1.280290    0.014648
     20          6           0       -1.136275   -3.678211   -0.000464
     21          6           0        2.410091   -2.460188   -0.019207
     22          6           0       -3.963430   -1.216293    0.014771
     23          6           0        0.302129    3.678148   -0.008079
     24          6           0       -1.070224    3.691074   -0.000769
     25          1           0        4.197286   -1.276762   -0.028164
     26          1           0        3.001881    3.348570   -0.022208
     27          1           0        4.215716    1.186839   -0.027742
     28          1           0       -5.028218    1.287197    0.020435
     29          1           0       -3.837552   -3.349089    0.014075
     30          1           0        2.942222   -3.408732   -0.022166
     31          1           0       -1.690509   -4.613872    0.002435
     32          1           0       -3.776816    3.410499    0.013746
     33          1           0        0.856826    4.613615   -0.011161
     34          1           0        0.774047   -4.634886   -0.010805
     35          1           0       -5.050795   -1.203559    0.020568
     36          1           0       -1.607641    4.636481    0.002013
     37          8           0        6.465577   -0.111175    0.055836
     38          1           0        6.745464    0.475870   -0.662656
     39          1           0        6.615607    0.408764    0.859783
 ---------------------------------------------------------------------
 Rotational constants (GHZ):      0.3331638      0.2170375      0.1315107
 Standard basis: 6-31G(d) (6D, 7F)
 There are   403 symmetry adapted basis functions of A   symmetry.
 Integral buffers will be    131072 words long.
 Raffenetti 2 integral format.
 Two-electron integral symmetry is turned on.
   403 basis functions,   756 primitive gaussians,   403 cartesian basis functions
    83 alpha electrons       83 beta electrons
       nuclear repulsion energy      1965.7562947684 Hartrees.
 NAtoms=   39 NActive=   39 NUniq=   39 SFac= 1.00D+00 NAtFMM=   50 NAOKFM=F Big=F
 One-electron integrals computed using PRISM.
 NBasis=   403 RedAO= T  NBF=   403
 NBsUse=   403 1.00D-06 NBFU=   403
 Harris functional with IExCor=  402 diagonalized for initial guess.
 ExpMin= 1.61D-01 ExpMax= 5.48D+03 ExpMxC= 8.25D+02 IAcc=1 IRadAn=         1 AccDes= 0.00D+00
 HarFok:  IExCor=  402 AccDes= 0.00D+00 IRadAn=         1 IDoV= 1
 ScaDFX=  1.000000  1.000000  1.000000  1.000000
 FoFCou: FMM=F IPFlag=           0 FMFlag=      100000 FMFlg1=           0
         NFxFlg=           0 DoJE=T BraDBF=F KetDBF=T FulRan=T
         Omega=  0.000000  0.000000  1.000000  0.000000  0.000000 ICntrl=     500 IOpCl=  0
         NMat0=    1 NMatS0=    1 NMatT0=    0 NMatD0=    1 NMtDS0=    0 NMtDT0=    0
         I1Cent=           4 NGrid=           0.
 Petite list used in FoFCou.
 Initial guess orbital symmetries:
       Occupied  (A) (A) (A) (A) (A) (A) (A) (A) (A) (A) (A) (A)
                 (A) (A) (A) (A) (A) (A) (A) (A) (A) (A) (A) (A)
                 (A) (A) (A) (A) (A) (A) (A) (A) (A) (A) (A) (A)
                 (A) (A) (A) (A) (A) (A) (A) (A) (A) (A) (A) (A)
                 (A) (A) (A) (A) (A) (A) (A) (A) (A) (A) (A) (A)
                 (A) (A) (A) (A) (A) (A) (A) (A) (A) (A) (A) (A)
                 (A) (A) (A) (A) (A) (A) (A) (A) (A) (A) (A)
       Virtual   (A) (A) (A) (A) (A) (A) (A) (A) (A) (A) (A) (A)
                 (A) (A) (A) (A) (A) (A) (A) (A) (A) (A) (A) (A)
                 (A) (A) (A) (A) (A) (A) (A) (A) (A) (A) (A) (A)
                 (A) (A) (A) (A) (A) (A) (A) (A) (A) (A) (A) (A)
                 (A) (A) (A) (A) (A) (A) (A) (A) (A) (A) (A) (A)
                 (A) (A) (A) (A) (A) (A) (A) (A) (A) (A) (A) (A)
                 (A) (A) (A) (A) (A) (A) (A) (A) (A) (A) (A) (A)
                 (A) (A) (A) (A) (A) (A) (A) (A) (A) (A) (A) (A)
                 (A) (A) (A) (A) (A) (A) (A) (A) (A) (A) (A) (A)
                 (A) (A) (A) (A) (A) (A) (A) (A) (A) (A) (A) (A)
                 (A) (A) (A) (A) (A) (A) (A) (A) (A) (A) (A) (A)
                 (A) (A) (A) (A) (A) (A) (A) (A) (A) (A) (A) (A)
                 (A) (A) (A) (A) (A) (A) (A) (A) (A) (A) (A) (A)
                 (A) (A) (A) (A) (A) (A) (A) (A) (A) (A) (A) (A)
                 (A) (A) (A) (A) (A) (A) (A) (A) (A) (A) (A) (A)
                 (A) (A) (A) (A) (A) (A) (A) (A) (A) (A) (A) (A)
                 (A) (A) (A) (A) (A) (A) (A) (A) (A) (A) (A) (A)
                 (A) (A) (A) (A) (A) (A) (A) (A) (A) (A) (A) (A)
                 (A) (A) (A) (A) (A) (A) (A) (A) (A) (A) (A) (A)
                 (A) (A) (A) (A) (A) (A) (A) (A) (A) (A) (A) (A)
                 (A) (A) (A) (A) (A) (A) (A) (A) (A) (A) (A) (A)
                 (A) (A) (A) (A) (A) (A) (A) (A) (A) (A) (A) (A)
                 (A) (A) (A) (A) (A) (A) (A) (A) (A) (A) (A) (A)
                 (A) (A) (A) (A) (A) (A) (A) (A) (A) (A) (A) (A)
                 (A) (A) (A) (A) (A) (A) (A) (A) (A) (A) (A) (A)
                 (A) (A) (A) (A) (A) (A) (A) (A) (A) (A) (A) (A)
                 (A) (A) (A) (A) (A) (A) (A) (A)
 The electronic state of the initial guess is 1-A.
 Requested convergence on RMS density matrix=1.00D-08 within  64 cycles.
 Requested convergence on MAX density matrix=1.00D-06.
 Requested convergence on             energy=1.00D-06.
 No special actions if energy rises.
 Integral accuracy reduced to 1.0D-05 until final iterations.
 Initial convergence to 1.0D-05 achieved.  Increase integral accuracy.
 SCF Done:  E(RB3LYP) =  -998.312399297     A.U. after   14 cycles
             Convg  =    0.7467D-08             -V/T =  2.0096
 QCSCF skips out because SCF is already converged.

 **********************************************************************

            Population analysis using the SCF density.

 **********************************************************************

 Orbital symmetries:
       Occupied  (A) (A) (A) (A) (A) (A) (A) (A) (A) (A) (A) (A)
                 (A) (A) (A) (A) (A) (A) (A) (A) (A) (A) (A) (A)
                 (A) (A) (A) (A) (A) (A) (A) (A) (A) (A) (A) (A)
                 (A) (A) (A) (A) (A) (A) (A) (A) (A) (A) (A) (A)
                 (A) (A) (A) (A) (A) (A) (A) (A) (A) (A) (A) (A)
                 (A) (A) (A) (A) (A) (A) (A) (A) (A) (A) (A) (A)
                 (A) (A) (A) (A) (A) (A) (A) (A) (A) (A) (A)
       Virtual   (A) (A) (A) (A) (A) (A) (A) (A) (A) (A) (A) (A)
                 (A) (A) (A) (A) (A) (A) (A) (A) (A) (A) (A) (A)
                 (A) (A) (A) (A) (A) (A) (A) (A) (A) (A) (A) (A)
                 (A) (A) (A) (A) (A) (A) (A) (A) (A) (A) (A) (A)
                 (A) (A) (A) (A) (A) (A) (A) (A) (A) (A) (A) (A)
                 (A) (A) (A) (A) (A) (A) (A) (A) (A) (A) (A) (A)
                 (A) (A) (A) (A) (A) (A) (A) (A) (A) (A) (A) (A)
                 (A) (A) (A) (A) (A) (A) (A) (A) (A) (A) (A) (A)
                 (A) (A) (A) (A) (A) (A) (A) (A) (A) (A) (A) (A)
                 (A) (A) (A) (A) (A) (A) (A) (A) (A) (A) (A) (A)
                 (A) (A) (A) (A) (A) (A) (A) (A) (A) (A) (A) (A)
                 (A) (A) (A) (A) (A) (A) (A) (A) (A) (A) (A) (A)
                 (A) (A) (A) (A) (A) (A) (A) (A) (A) (A) (A) (A)
                 (A) (A) (A) (A) (A) (A) (A) (A) (A) (A) (A) (A)
                 (A) (A) (A) (A) (A) (A) (A) (A) (A) (A) (A) (A)
                 (A) (A) (A) (A) (A) (A) (A) (A) (A) (A) (A) (A)
                 (A) (A) (A) (A) (A) (A) (A) (A) (A) (A) (A) (A)
                 (A) (A) (A) (A) (A) (A) (A) (A) (A) (A) (A) (A)
                 (A) (A) (A) (A) (A) (A) (A) (A) (A) (A) (A) (A)
                 (A) (A) (A) (A) (A) (A) (A) (A) (A) (A) (A) (A)
                 (A) (A) (A) (A) (A) (A) (A) (A) (A) (A) (A) (A)
                 (A) (A) (A) (A) (A) (A) (A) (A) (A) (A) (A) (A)
                 (A) (A) (A) (A) (A) (A) (A) (A) (A) (A) (A) (A)
                 (A) (A) (A) (A) (A) (A) (A) (A) (A) (A) (A) (A)
                 (A) (A) (A) (A) (A) (A) (A) (A) (A) (A) (A) (A)
                 (A) (A) (A) (A) (A) (A) (A) (A) (A) (A) (A) (A)
                 (A) (A) (A) (A) (A) (A) (A) (A)
 The electronic state is 1-A.
 Alpha  occ. eigenvalues --  -19.16136 -10.19513 -10.19505 -10.19477 -10.19464
 Alpha  occ. eigenvalues --  -10.19451 -10.19429 -10.19393 -10.19386 -10.19336
 Alpha  occ. eigenvalues --  -10.19296 -10.19259 -10.19176 -10.18917 -10.18913
 Alpha  occ. eigenvalues --  -10.18881 -10.18851 -10.18847 -10.18815 -10.18809
 Alpha  occ. eigenvalues --  -10.18800 -10.18739 -10.18560 -10.18462 -10.18106
 Alpha  occ. eigenvalues --   -1.01850  -0.89706  -0.86108  -0.86029  -0.81423
 Alpha  occ. eigenvalues --   -0.81388  -0.79770  -0.76676  -0.75271  -0.73599
 Alpha  occ. eigenvalues --   -0.73520  -0.70402  -0.70359  -0.62709  -0.62665
 Alpha  occ. eigenvalues --   -0.62415  -0.62361  -0.61560  -0.55622  -0.54790
 Alpha  occ. eigenvalues --   -0.53779  -0.53181  -0.53109  -0.52655  -0.50544
 Alpha  occ. eigenvalues --   -0.46769  -0.46621  -0.45072  -0.44998  -0.44930
 Alpha  occ. eigenvalues --   -0.44811  -0.42029  -0.41750  -0.41333  -0.41295
 Alpha  occ. eigenvalues --   -0.40957  -0.39576  -0.39448  -0.39051  -0.37569
 Alpha  occ. eigenvalues --   -0.37489  -0.36847  -0.36663  -0.35348  -0.35182
 Alpha  occ. eigenvalues --   -0.35125  -0.32170  -0.32133  -0.31633  -0.30894
 Alpha  occ. eigenvalues --   -0.30621  -0.30387  -0.26139  -0.25905  -0.24296
 Alpha  occ. eigenvalues --   -0.24230  -0.19587  -0.19535
 Alpha virt. eigenvalues --   -0.04751  -0.04699  -0.00662  -0.00602   0.01385
 Alpha virt. eigenvalues --    0.02719   0.04173   0.07365   0.09991   0.10102
 Alpha virt. eigenvalues --    0.10157   0.11119   0.11907   0.13078   0.13432
 Alpha virt. eigenvalues --    0.13769   0.15273   0.15917   0.17065   0.18478
 Alpha virt. eigenvalues --    0.18881   0.18965   0.19338   0.20476   0.21667
 Alpha virt. eigenvalues --    0.21715   0.25877   0.26060   0.26201   0.27705
 Alpha virt. eigenvalues --    0.27779   0.27947   0.29132   0.29235   0.29415
 Alpha virt. eigenvalues --    0.29603   0.31061   0.34100   0.34191   0.35174
 Alpha virt. eigenvalues --    0.36626   0.36721   0.42311   0.44253   0.45859
 Alpha virt. eigenvalues --    0.46256   0.47263   0.47291   0.50142   0.50413
 Alpha virt. eigenvalues --    0.50559   0.52266   0.52357   0.52577   0.52846
 Alpha virt. eigenvalues --    0.54142   0.55086   0.55139   0.55958   0.56010
 Alpha virt. eigenvalues --    0.56447   0.56550   0.57142   0.57413   0.57476
 Alpha virt. eigenvalues --    0.58935   0.59140   0.59184   0.59271   0.59545
 Alpha virt. eigenvalues --    0.60058   0.60131   0.60177   0.60269   0.60633
 Alpha virt. eigenvalues --    0.60886   0.62445   0.62504   0.62776   0.63427
 Alpha virt. eigenvalues --    0.63474   0.64080   0.64180   0.64360   0.64532
 Alpha virt. eigenvalues --    0.68983   0.69823   0.69968   0.71237   0.71310
 Alpha virt. eigenvalues --    0.72020   0.72165   0.75925   0.77012   0.79189
 Alpha virt. eigenvalues --    0.80104   0.81125   0.81846   0.81857   0.81957
 Alpha virt. eigenvalues --    0.82321   0.83160   0.83433   0.84746   0.85444
 Alpha virt. eigenvalues --    0.85666   0.85909   0.86097   0.86175   0.86330
 Alpha virt. eigenvalues --    0.89210   0.89324   0.91277   0.93692   0.94011
 Alpha virt. eigenvalues --    0.94730   0.94945   0.95661   0.95815   0.96909
 Alpha virt. eigenvalues --    0.99817   0.99933   1.01327   1.01596   1.01906
 Alpha virt. eigenvalues --    1.02152   1.02642   1.03200   1.03771   1.04829
 Alpha virt. eigenvalues --    1.05514   1.06181   1.09969   1.12875   1.15443
 Alpha virt. eigenvalues --    1.15795   1.16287   1.16618   1.16849   1.17906
 Alpha virt. eigenvalues --    1.21134   1.21476   1.22379   1.23007   1.25528
 Alpha virt. eigenvalues --    1.25572   1.27193   1.27278   1.27401   1.27489
 Alpha virt. eigenvalues --    1.30479   1.30514   1.31562   1.32447   1.35239
 Alpha virt. eigenvalues --    1.36663   1.41018   1.41037   1.41330   1.41376
 Alpha virt. eigenvalues --    1.42885   1.43572   1.44667   1.46411   1.47642
 Alpha virt. eigenvalues --    1.47666   1.48047   1.48146   1.48539   1.49021
 Alpha virt. eigenvalues --    1.49166   1.49916   1.52815   1.52855   1.53115
 Alpha virt. eigenvalues --    1.53489   1.61739   1.61834   1.65035   1.65116
 Alpha virt. eigenvalues --    1.69516   1.70820   1.70923   1.71800   1.72490
 Alpha virt. eigenvalues --    1.72652   1.73330   1.77901   1.77939   1.78358
 Alpha virt. eigenvalues --    1.78385   1.78736   1.78933   1.80122   1.82532
 Alpha virt. eigenvalues --    1.83216   1.83275   1.86451   1.86546   1.88222
 Alpha virt. eigenvalues --    1.89648   1.91765   1.91836   1.92520   1.94714
 Alpha virt. eigenvalues --    1.94735   1.95109   1.95178   1.96102   1.96178
 Alpha virt. eigenvalues --    1.96520   1.97634   1.98833   2.01747   2.01806
 Alpha virt. eigenvalues --    2.01952   2.01975   2.04457   2.05642   2.07225
 Alpha virt. eigenvalues --    2.07363   2.07462   2.15291   2.15357   2.15410
 Alpha virt. eigenvalues --    2.15450   2.23800   2.24089   2.24124   2.26196
 Alpha virt. eigenvalues --    2.26284   2.26372   2.26523   2.26554   2.26704
 Alpha virt. eigenvalues --    2.26896   2.27064   2.28160   2.30682   2.30922
 Alpha virt. eigenvalues --    2.34577   2.34791   2.34802   2.34856   2.34948
 Alpha virt. eigenvalues --    2.35976   2.36077   2.41048   2.41818   2.42382
 Alpha virt. eigenvalues --    2.42577   2.45345   2.45514   2.50335   2.50610
 Alpha virt. eigenvalues --    2.55849   2.57451   2.57521   2.62687   2.62955
 Alpha virt. eigenvalues --    2.63436   2.63551   2.71102   2.71291   2.71470
 Alpha virt. eigenvalues --    2.71720   2.72380   2.73850   2.73878   2.78396
 Alpha virt. eigenvalues --    2.78674   2.82184   2.83807   2.83876   2.83950
 Alpha virt. eigenvalues --    2.84103   2.85822   2.85932   2.88910   2.93163
 Alpha virt. eigenvalues --    2.93212   2.99773   3.01001   3.01124   3.02998
 Alpha virt. eigenvalues --    3.04796   3.08674   3.09056   3.23852   3.31632
 Alpha virt. eigenvalues --    3.31807   3.41404   3.41460   3.57170   3.60770
 Alpha virt. eigenvalues --    3.65104   4.08118   4.08873   4.09216   4.10806
 Alpha virt. eigenvalues --    4.10906   4.11246   4.13033   4.16440   4.16496
 Alpha virt. eigenvalues --    4.16642   4.16843   4.17290   4.27210   4.27357
 Alpha virt. eigenvalues --    4.35204   4.35399   4.35609   4.40742   4.48475
 Alpha virt. eigenvalues --    4.53590   4.53790   4.75604   4.75817   5.02491
          Condensed to atoms (all electrons):
              1          2          3          4          5          6
     1  C    5.418671   0.227565   0.227546  -0.019487  -0.018568  -0.089365
     2  C    0.227565   5.406462  -0.021141   0.229188  -0.089816  -0.017457
     3  C    0.227546  -0.021141   5.402917  -0.089344   0.230760  -0.017548
     4  C   -0.019487   0.229188  -0.089344   5.400491  -0.016819   0.231943
     5  C   -0.018568  -0.089816   0.230760  -0.016819   5.398796   0.231986
     6  C   -0.089365  -0.017457  -0.017548   0.231943   0.231986   5.395293
     7  C    0.419726  -0.048765  -0.049651   0.014755   0.014736  -0.000805
     8  C   -0.050262   0.432431   0.014262  -0.053299  -0.000804   0.014180
     9  C   -0.050140   0.014727   0.432648  -0.000809  -0.054422   0.014183
    10  C    0.014303  -0.052651  -0.000787   0.434905   0.014145  -0.053580
    11  C    0.014282  -0.000804  -0.053150   0.014195   0.435340  -0.053612
    12  C   -0.000789   0.014179   0.014174  -0.053414  -0.053381   0.435800
    13  C    0.012309   0.018987  -0.087794  -0.000124  -0.002611  -0.000004
    14  C   -0.089270   0.013864  -0.002516   0.019183  -0.000002  -0.000114
    15  C    0.013293  -0.089654   0.020196  -0.002719  -0.000106  -0.000013
    16  C   -0.000123   0.018315  -0.000003   0.011236  -0.002277  -0.083729
    17  C   -0.000127  -0.000001   0.018325  -0.002292   0.011421  -0.083788
    18  C    0.018901  -0.000109   0.011708  -0.000006  -0.084668  -0.002335
    19  C   -0.000004  -0.002289  -0.000126  -0.083719   0.018262   0.011286
    20  C   -0.002366  -0.000009  -0.084125  -0.000123   0.011537   0.018315
    21  C   -0.088798  -0.002738   0.016204  -0.000001   0.018724  -0.000119
    22  C   -0.000002  -0.000127  -0.002287   0.018263  -0.083676   0.011110
    23  C    0.018591   0.012718  -0.000128  -0.084425  -0.000001  -0.002311
    24  C   -0.002337  -0.084348  -0.000003   0.011622  -0.000128   0.018299
    25  H    0.002865  -0.000212   0.001229   0.000002   0.000024  -0.000001
    26  H    0.001358   0.003436   0.000028  -0.000238  -0.000001   0.000003
    27  H    0.004466   0.000730  -0.000133   0.000016   0.000003  -0.000001
    28  H   -0.000001   0.000029   0.000003   0.001398  -0.000238   0.003258
    29  H    0.000003  -0.000001  -0.000237   0.000029   0.003256   0.001400
    30  H    0.001403   0.000028   0.003242  -0.000001  -0.000234   0.000003
    31  H    0.000029  -0.000001   0.001406   0.000003   0.003248  -0.000238
    32  H    0.000002  -0.000238  -0.000001   0.003251   0.000029   0.001401
    33  H   -0.000233   0.003324   0.000003   0.001385  -0.000001   0.000029
    34  H   -0.000235   0.000003   0.003281  -0.000001   0.001394   0.000029
    35  H   -0.000001   0.000002   0.000029  -0.000238   0.001399   0.003255
    36  H    0.000029   0.001411  -0.000001   0.003247   0.000002  -0.000239
    37  O   -0.000001  -0.000001   0.000000   0.000000   0.000000   0.000000
    38  H    0.000001   0.000000   0.000000   0.000000   0.000000   0.000000
    39  H    0.000001   0.000000   0.000000   0.000000   0.000000   0.000000
              7          8          9         10         11         12
     1  C    0.419726  -0.050262  -0.050140   0.014303   0.014282  -0.000789
     2  C   -0.048765   0.432431   0.014727  -0.052651  -0.000804   0.014179
     3  C   -0.049651   0.014262   0.432648  -0.000787  -0.053150   0.014174
     4  C    0.014755  -0.053299  -0.000809   0.434905   0.014195  -0.053414
     5  C    0.014736  -0.000804  -0.054422   0.014145   0.435340  -0.053381
     6  C   -0.000805   0.014180   0.014183  -0.053580  -0.053612   0.435800
     7  C    4.843190  -0.049548  -0.047838  -0.000123  -0.000122  -0.000002
     8  C   -0.049548   4.812397  -0.000123  -0.044415  -0.000002  -0.000115
     9  C   -0.047838  -0.000123   4.813715  -0.000002  -0.044434  -0.000111
    10  C   -0.000123  -0.044415  -0.000002   4.808764  -0.000112  -0.044237
    11  C   -0.000122  -0.000002  -0.044434  -0.000112   4.809416  -0.044302
    12  C   -0.000002  -0.000115  -0.000111  -0.044237  -0.044302   4.808557
    13  C    0.408748  -0.000615   0.020197  -0.000001   0.000085   0.000000
    14  C    0.022467   0.401923   0.000095  -0.000551   0.000000  -0.000001
    15  C    0.402412   0.019521  -0.000957   0.000090  -0.000002   0.000000
    16  C   -0.000001  -0.000473   0.000000   0.409833   0.000074   0.014418
    17  C   -0.000001   0.000000  -0.000461   0.000074   0.409582   0.014517
    18  C   -0.000700  -0.000001   0.409869   0.000000   0.014973   0.000075
    19  C    0.000000   0.000075  -0.000001   0.014403  -0.000462   0.409851
    20  C    0.000092   0.000000   0.014630  -0.000001   0.409687  -0.000464
    21  C    0.021494   0.000096   0.400851   0.000000  -0.000500  -0.000001
    22  C    0.000000  -0.000001   0.000073  -0.000460   0.014357   0.410172
    23  C   -0.000565   0.410562  -0.000001   0.014662   0.000000   0.000074
    24  C    0.000083   0.014565   0.000000   0.409857  -0.000001  -0.000462
    25  H   -0.031277   0.000010   0.001593   0.000000   0.000000   0.000000
    26  H    0.002088  -0.036030   0.000000   0.000014   0.000000   0.000000
    27  H   -0.041313   0.003099  -0.000033   0.000000   0.000000   0.000000
    28  H    0.000000   0.000000   0.000000   0.001743   0.000014  -0.035910
    29  H    0.000000   0.000000   0.000013   0.000000  -0.035872   0.001745
    30  H    0.001828   0.000000  -0.037445   0.000000   0.000013   0.000000
    31  H    0.000000   0.000000   0.001732   0.000000  -0.036088   0.000014
    32  H    0.000000   0.000014   0.000000  -0.035984   0.000000   0.001741
    33  H    0.000010  -0.035939   0.000000   0.001762   0.000000   0.000000
    34  H    0.000010   0.000000  -0.035561   0.000000   0.001755   0.000000
    35  H    0.000000   0.000000   0.000000   0.000014   0.001738  -0.035995
    36  H    0.000000   0.001727   0.000000  -0.035888   0.000000   0.000014
    37  O   -0.001096   0.000002  -0.000001   0.000000   0.000000   0.000000
    38  H    0.000054   0.000000   0.000000   0.000000   0.000000   0.000000
    39  H    0.000063   0.000000   0.000000   0.000000   0.000000   0.000000
             13         14         15         16         17         18
     1  C    0.012309  -0.089270   0.013293  -0.000123  -0.000127   0.018901
     2  C    0.018987   0.013864  -0.089654   0.018315  -0.000001  -0.000109
     3  C   -0.087794  -0.002516   0.020196  -0.000003   0.018325   0.011708
     4  C   -0.000124   0.019183  -0.002719   0.011236  -0.002292  -0.000006
     5  C   -0.002611  -0.000002  -0.000106  -0.002277   0.011421  -0.084668
     6  C   -0.000004  -0.000114  -0.000013  -0.083729  -0.083788  -0.002335
     7  C    0.408748   0.022467   0.402412  -0.000001  -0.000001  -0.000700
     8  C   -0.000615   0.401923   0.019521  -0.000473   0.000000  -0.000001
     9  C    0.020197   0.000095  -0.000957   0.000000  -0.000461   0.409869
    10  C   -0.000001  -0.000551   0.000090   0.409833   0.000074   0.000000
    11  C    0.000085   0.000000  -0.000002   0.000074   0.409582   0.014973
    12  C    0.000000  -0.000001   0.000000   0.014418   0.014517   0.000075
    13  C    5.239677   0.009600  -0.102883   0.000000   0.000001   0.009280
    14  C    0.009600   5.225847   0.408297  -0.000014   0.000000   0.000001
    15  C   -0.102883   0.408297   5.246017   0.000001   0.000000  -0.000017
    16  C    0.000000  -0.000014   0.000001   5.188486  -0.000430   0.000000
    17  C    0.000001   0.000000   0.000000  -0.000430   5.188223   0.009023
    18  C    0.009280   0.000001  -0.000017   0.000000   0.009023   5.189710
    19  C    0.000000   0.000001   0.000000   0.432907   0.009031   0.000001
    20  C   -0.000450   0.000000   0.000001   0.000001  -0.102500   0.431995
    21  C    0.406755  -0.000500   0.010475   0.000000  -0.000013  -0.103676
    22  C    0.000000   0.000000   0.000000   0.009031   0.432865  -0.000429
    23  C   -0.000012  -0.103717   0.008928   0.009043   0.000000   0.000000
    24  C    0.000001   0.009215  -0.000434  -0.102509   0.000001   0.000000
    25  H    0.345987   0.000296  -0.006685   0.000000   0.000000  -0.000171
    26  H   -0.000201   0.349086  -0.038546   0.000000   0.000000   0.000000
    27  H   -0.010007  -0.042987   0.324853   0.000000   0.000000   0.000000
    28  H    0.000000   0.000000   0.000000  -0.037769   0.000189   0.000000
    29  H    0.000000   0.000000   0.000000   0.000003   0.350450   0.000188
    30  H   -0.037452   0.000003  -0.000201   0.000000   0.000000  -0.006959
    31  H    0.000003   0.000000   0.000000   0.000000  -0.006907  -0.037658
    32  H    0.000000   0.000000   0.000000   0.350451   0.000003   0.000000
    33  H    0.000000  -0.007160   0.000177  -0.000206   0.000000   0.000000
    34  H    0.000192   0.000000   0.000000   0.000000  -0.000205   0.350475
    35  H    0.000000   0.000000   0.000000   0.000189  -0.037699   0.000003
    36  H    0.000000  -0.000208   0.000003  -0.006916   0.000000   0.000000
    37  O   -0.004299   0.000112  -0.008501   0.000000   0.000000   0.000000
    38  H    0.000352  -0.000030   0.000231   0.000000   0.000000   0.000000
    39  H    0.000457  -0.000033   0.000347   0.000000   0.000000   0.000000
             19         20         21         22         23         24
     1  C   -0.000004  -0.002366  -0.088798  -0.000002   0.018591  -0.002337
     2  C   -0.002289  -0.000009  -0.002738  -0.000127   0.012718  -0.084348
     3  C   -0.000126  -0.084125   0.016204  -0.002287  -0.000128  -0.000003
     4  C   -0.083719  -0.000123  -0.000001   0.018263  -0.084425   0.011622
     5  C    0.018262   0.011537   0.018724  -0.083676  -0.000001  -0.000128
     6  C    0.011286   0.018315  -0.000119   0.011110  -0.002311   0.018299
     7  C    0.000000   0.000092   0.021494   0.000000  -0.000565   0.000083
     8  C    0.000075   0.000000   0.000096  -0.000001   0.410562   0.014565
     9  C   -0.000001   0.014630   0.400851   0.000073  -0.000001   0.000000
    10  C    0.014403  -0.000001   0.000000  -0.000460   0.014662   0.409857
    11  C   -0.000462   0.409687  -0.000500   0.014357   0.000000  -0.000001
    12  C    0.409851  -0.000464  -0.000001   0.410172   0.000074  -0.000462
    13  C    0.000000  -0.000450   0.406755   0.000000  -0.000012   0.000001
    14  C    0.000001   0.000000  -0.000500   0.000000  -0.103717   0.009215
    15  C    0.000000   0.000001   0.010475   0.000000   0.008928  -0.000434
    16  C    0.432907   0.000001   0.000000   0.009031   0.009043  -0.102509
    17  C    0.009031  -0.102500  -0.000013   0.432865   0.000000   0.000001
    18  C    0.000001   0.431995  -0.103676  -0.000429   0.000000   0.000000
    19  C    5.188091  -0.000013   0.000000  -0.102434  -0.000429   0.009027
    20  C   -0.000013   5.189478   0.009142   0.009030   0.000000   0.000000
    21  C    0.000000   0.009142   5.219158   0.000001   0.000001   0.000000
    22  C   -0.102434   0.009030   0.000001   5.188265   0.000001  -0.000013
    23  C   -0.000429   0.000000   0.000001   0.000001   5.188946   0.432963
    24  C    0.009027   0.000000   0.000000  -0.000013   0.432963   5.188723
    25  H    0.000000   0.000002  -0.035528   0.000000   0.000000   0.000000
    26  H    0.000000   0.000000   0.000003   0.000000  -0.007176   0.000185
    27  H    0.000000   0.000000   0.000542   0.000000  -0.000178   0.000002
    28  H    0.350495   0.000000   0.000000  -0.006920   0.000003  -0.000205
    29  H   -0.000206  -0.006913   0.000000  -0.037781   0.000000   0.000000
    30  H    0.000000   0.000204   0.351732   0.000000   0.000000   0.000000
    31  H    0.000000   0.350484  -0.000207   0.000188   0.000000   0.000000
    32  H   -0.037722   0.000000   0.000000  -0.000206   0.000188  -0.006923
    33  H    0.000003   0.000000   0.000000   0.000000   0.350027  -0.037964
    34  H    0.000000  -0.038069  -0.006871   0.000003   0.000000   0.000000
    35  H   -0.006920  -0.000205   0.000000   0.350529   0.000000   0.000000
    36  H    0.000187   0.000000   0.000000   0.000000  -0.037810   0.350365
    37  O    0.000000   0.000000   0.000140   0.000000   0.000000   0.000000
    38  H    0.000000   0.000000  -0.000006   0.000000   0.000000   0.000000
    39  H    0.000000   0.000000  -0.000008   0.000000   0.000000   0.000000
             25         26         27         28         29         30
     1  C    0.002865   0.001358   0.004466  -0.000001   0.000003   0.001403
     2  C   -0.000212   0.003436   0.000730   0.000029  -0.000001   0.000028
     3  C    0.001229   0.000028  -0.000133   0.000003  -0.000237   0.003242
     4  C    0.000002  -0.000238   0.000016   0.001398   0.000029  -0.000001
     5  C    0.000024  -0.000001   0.000003  -0.000238   0.003256  -0.000234
     6  C   -0.000001   0.000003  -0.000001   0.003258   0.001400   0.000003
     7  C   -0.031277   0.002088  -0.041313   0.000000   0.000000   0.001828
     8  C    0.000010  -0.036030   0.003099   0.000000   0.000000   0.000000
     9  C    0.001593   0.000000  -0.000033   0.000000   0.000013  -0.037445
    10  C    0.000000   0.000014   0.000000   0.001743   0.000000   0.000000
    11  C    0.000000   0.000000   0.000000   0.000014  -0.035872   0.000013
    12  C    0.000000   0.000000   0.000000  -0.035910   0.001745   0.000000
    13  C    0.345987  -0.000201  -0.010007   0.000000   0.000000  -0.037452
    14  C    0.000296   0.349086  -0.042987   0.000000   0.000000   0.000003
    15  C   -0.006685  -0.038546   0.324853   0.000000   0.000000  -0.000201
    16  C    0.000000   0.000000   0.000000  -0.037769   0.000003   0.000000
    17  C    0.000000   0.000000   0.000000   0.000189   0.350450   0.000000
    18  C   -0.000171   0.000000   0.000000   0.000000   0.000188  -0.006959
    19  C    0.000000   0.000000   0.000000   0.350495  -0.000206   0.000000
    20  C    0.000002   0.000000   0.000000   0.000000  -0.006913   0.000204
    21  C   -0.035528   0.000003   0.000542   0.000000   0.000000   0.351732
    22  C    0.000000   0.000000   0.000000  -0.006920  -0.037781   0.000000
    23  C    0.000000  -0.007176  -0.000178   0.000003   0.000000   0.000000
    24  C    0.000000   0.000185   0.000002  -0.000205   0.000000   0.000000
    25  H    0.530940  -0.000009   0.004834   0.000000   0.000000  -0.003694
    26  H   -0.000009   0.602430  -0.005015   0.000000   0.000000   0.000000
    27  H    0.004834  -0.005015   0.617693   0.000000   0.000000  -0.000005
    28  H    0.000000   0.000000   0.000000   0.593455  -0.000011   0.000000
    29  H    0.000000   0.000000   0.000000  -0.000011   0.593384   0.000000
    30  H   -0.003694   0.000000  -0.000005   0.000000   0.000000   0.592130
    31  H    0.000000   0.000000   0.000000   0.000000   0.006540  -0.000011
    32  H    0.000000   0.000000   0.000000  -0.004499   0.000000   0.000000
    33  H    0.000000   0.006666  -0.000008   0.000000   0.000000   0.000000
    34  H   -0.000009   0.000000   0.000000   0.000000  -0.000011   0.006511
    35  H    0.000000   0.000000   0.000000   0.006544  -0.004496   0.000000
    36  H    0.000000  -0.000011   0.000000  -0.000011   0.000000   0.000000
    37  O    0.016156  -0.000010   0.027082   0.000000   0.000000  -0.000002
    38  H   -0.000902  -0.000001   0.000244   0.000000   0.000000   0.000000
    39  H   -0.001114  -0.000001   0.000153   0.000000   0.000000   0.000000
             31         32         33         34         35         36
     1  C    0.000029   0.000002  -0.000233  -0.000235  -0.000001   0.000029
     2  C   -0.000001  -0.000238   0.003324   0.000003   0.000002   0.001411
     3  C    0.001406  -0.000001   0.000003   0.003281   0.000029  -0.000001
     4  C    0.000003   0.003251   0.001385  -0.000001  -0.000238   0.003247
     5  C    0.003248   0.000029  -0.000001   0.001394   0.001399   0.000002
     6  C   -0.000238   0.001401   0.000029   0.000029   0.003255  -0.000239
     7  C    0.000000   0.000000   0.000010   0.000010   0.000000   0.000000
     8  C    0.000000   0.000014  -0.035939   0.000000   0.000000   0.001727
     9  C    0.001732   0.000000   0.000000  -0.035561   0.000000   0.000000
    10  C    0.000000  -0.035984   0.001762   0.000000   0.000014  -0.035888
    11  C   -0.036088   0.000000   0.000000   0.001755   0.001738   0.000000
    12  C    0.000014   0.001741   0.000000   0.000000  -0.035995   0.000014
    13  C    0.000003   0.000000   0.000000   0.000192   0.000000   0.000000
    14  C    0.000000   0.000000  -0.007160   0.000000   0.000000  -0.000208
    15  C    0.000000   0.000000   0.000177   0.000000   0.000000   0.000003
    16  C    0.000000   0.350451  -0.000206   0.000000   0.000189  -0.006916
    17  C   -0.006907   0.000003   0.000000  -0.000205  -0.037699   0.000000
    18  C   -0.037658   0.000000   0.000000   0.350475   0.000003   0.000000
    19  C    0.000000  -0.037722   0.000003   0.000000  -0.006920   0.000187
    20  C    0.350484   0.000000   0.000000  -0.038069  -0.000205   0.000000
    21  C   -0.000207   0.000000   0.000000  -0.006871   0.000000   0.000000
    22  C    0.000188  -0.000206   0.000000   0.000003   0.350529   0.000000
    23  C    0.000000   0.000188   0.350027   0.000000   0.000000  -0.037810
    24  C    0.000000  -0.006923  -0.037964   0.000000   0.000000   0.350365
    25  H    0.000000   0.000000   0.000000  -0.000009   0.000000   0.000000
    26  H    0.000000   0.000000   0.006666   0.000000   0.000000  -0.000011
    27  H    0.000000   0.000000  -0.000008   0.000000   0.000000   0.000000
    28  H    0.000000  -0.004499   0.000000   0.000000   0.006544  -0.000011
    29  H    0.006540   0.000000   0.000000  -0.000011  -0.004496   0.000000
    30  H   -0.000011   0.000000   0.000000   0.006511   0.000000   0.000000
    31  H    0.593870   0.000000   0.000000  -0.004494  -0.000011   0.000000
    32  H    0.000000   0.593725  -0.000011   0.000000  -0.000011   0.006548
    33  H    0.000000  -0.000011   0.596005   0.000000   0.000000  -0.004516
    34  H   -0.004494   0.000000   0.000000   0.592926   0.000000   0.000000
    35  H   -0.000011  -0.000011   0.000000   0.000000   0.593590   0.000000
    36  H    0.000000   0.006548  -0.004516   0.000000   0.000000   0.594184
    37  O    0.000000   0.000000   0.000000   0.000000   0.000000   0.000000
    38  H    0.000000   0.000000   0.000000   0.000000   0.000000   0.000000
    39  H    0.000000   0.000000   0.000000   0.000000   0.000000   0.000000
             37         38         39
     1  C   -0.000001   0.000001   0.000001
     2  C   -0.000001   0.000000   0.000000
     3  C    0.000000   0.000000   0.000000
     4  C    0.000000   0.000000   0.000000
     5  C    0.000000   0.000000   0.000000
     6  C    0.000000   0.000000   0.000000
     7  C   -0.001096   0.000054   0.000063
     8  C    0.000002   0.000000   0.000000
     9  C   -0.000001   0.000000   0.000000
    10  C    0.000000   0.000000   0.000000
    11  C    0.000000   0.000000   0.000000
    12  C    0.000000   0.000000   0.000000
    13  C   -0.004299   0.000352   0.000457
    14  C    0.000112  -0.000030  -0.000033
    15  C   -0.008501   0.000231   0.000347
    16  C    0.000000   0.000000   0.000000
    17  C    0.000000   0.000000   0.000000
    18  C    0.000000   0.000000   0.000000
    19  C    0.000000   0.000000   0.000000
    20  C    0.000000   0.000000   0.000000
    21  C    0.000140  -0.000006  -0.000008
    22  C    0.000000   0.000000   0.000000
    23  C    0.000000   0.000000   0.000000
    24  C    0.000000   0.000000   0.000000
    25  H    0.016156  -0.000902  -0.001114
    26  H   -0.000010  -0.000001  -0.000001
    27  H    0.027082   0.000244   0.000153
    28  H    0.000000   0.000000   0.000000
    29  H    0.000000   0.000000   0.000000
    30  H   -0.000002   0.000000   0.000000
    31  H    0.000000   0.000000   0.000000
    32  H    0.000000   0.000000   0.000000
    33  H    0.000000   0.000000   0.000000
    34  H    0.000000   0.000000   0.000000
    35  H    0.000000   0.000000   0.000000
    36  H    0.000000   0.000000   0.000000
    37  O    8.240527   0.241722   0.241711
    38  H    0.241722   0.381728  -0.021233
    39  H    0.241711  -0.021233   0.381577
 Mulliken atomic charges:
              1
     1  C    0.016766
     2  C    0.012960
     3  C    0.011014
     4  C    0.011946
     5  C    0.012690
     6  C    0.013487
     7  C    0.120052
     8  C    0.146763
     9  C    0.148016
    10  C    0.144225
    11  C    0.143954
    12  C    0.143856
    13  C   -0.226176
    14  C   -0.212886
    15  C   -0.204125
    16  C   -0.209539
    17  C   -0.209279
    18  C   -0.209473
    19  C   -0.209295
    20  C   -0.209359
    21  C   -0.216352
    22  C   -0.209549
    23  C   -0.209954
    24  C   -0.209581
    25  H    0.175665
    26  H    0.121941
    27  H    0.115964
    28  H    0.128435
    29  H    0.128519
    30  H    0.128906
    31  H    0.128100
    32  H    0.128241
    33  H    0.126647
    34  H    0.128877
    35  H    0.128285
    36  H    0.127880
    37  O   -0.753540
    38  H    0.397839
    39  H    0.398079
 Sum of Mulliken atomic charges =   0.00000
 Mulliken charges with hydrogens summed into heavy atoms:
              1
     1  C    0.016766
     2  C    0.012960
     3  C    0.011014
     4  C    0.011946
     5  C    0.012690
     6  C    0.013487
     7  C    0.120052
     8  C    0.146763
     9  C    0.148016
    10  C    0.144225
    11  C    0.143954
    12  C    0.143856
    13  C   -0.050512
    14  C   -0.090945
    15  C   -0.088161
    16  C   -0.081298
    17  C   -0.080760
    18  C   -0.080596
    19  C   -0.080859
    20  C   -0.081258
    21  C   -0.087445
    22  C   -0.081264
    23  C   -0.083306
    24  C   -0.081701
    37  O    0.042378
 Sum of Mulliken charges with hydrogens summed into heavy atoms =   0.00000
          Condensed to fragments (all electrons):
     1      -0.042378
     2       0.042378
 Electronic spatial extent (au):  <R**2>=           7797.2872
 Charge=              0.0000 electrons
 Dipole moment (field-independent basis, Debye):
    X=              1.8630    Y=              1.6187    Z=              0.1526  Tot=              2.4727
 Quadrupole moment (field-independent basis, Debye-Ang):
   XX=           -107.9161   YY=           -124.3099   ZZ=           -145.7280
   XY=             12.0402   XZ=              0.7393   YZ=              0.0801
 Traceless Quadrupole moment (field-independent basis, Debye-Ang):
   XX=             18.0685   YY=              1.6748   ZZ=            -19.7433
   XY=             12.0402   XZ=              0.7393   YZ=              0.0801
 Octapole moment (field-independent basis, Debye-Ang**2):
  XXX=            154.1601  YYY=             -1.6332  ZZZ=              1.1981  XYY=              8.6305
  XXY=             83.8954  XXZ=              4.7212  XZZ=             32.3685  YZZ=              0.9462
  YYZ=              0.0210  XYZ=              0.4624
 Hexadecapole moment (field-independent basis, Debye-Ang**3):
 XXXX=          -4582.3929 YYYY=          -3848.8655 ZZZZ=           -153.0660 XXXY=            578.5203
 XXXZ=             20.8467 YYYX=              1.7059 YYYZ=              0.0144 ZZZX=              7.6984
 ZZZY=              0.2547 XXYY=          -1560.4406 XXZZ=           -996.3689 YYZZ=           -799.6511
 XXYZ=              2.5917 YYXZ=             -0.5004 ZZXY=              7.2478
 N-N= 1.965756294768D+03 E-N=-6.247429512276D+03  KE= 9.888473204258D+02
 Counterpoise: doing DCBS calculation for fragment   1 NewBq=T
 Basis read from rwf:  (6D, 7F)
 There are   403 symmetry adapted basis functions of A   symmetry.
 Integral buffers will be    131072 words long.
 Raffenetti 2 integral format.
 Two-electron integral symmetry is turned on.
   403 basis functions,   756 primitive gaussians,   403 cartesian basis functions
    78 alpha electrons       78 beta electrons
       nuclear repulsion energy      1830.0548361269 Hartrees.
 NAtoms=   39 NActive=   39 NUniq=   39 SFac= 1.00D+00 NAtFMM=   50 NAOKFM=F Big=F
 One-electron integrals computed using PRISM.
 NBasis=   403 RedAO= T  NBF=   403
 NBsUse=   403 1.00D-06 NBFU=   403
 Harris functional with IExCor=  402 diagonalized for initial guess.
 ExpMin= 1.61D-01 ExpMax= 5.48D+03 ExpMxC= 8.25D+02 IAcc=1 IRadAn=         1 AccDes= 0.00D+00
 HarFok:  IExCor=  402 AccDes= 0.00D+00 IRadAn=         1 IDoV= 1
 ScaDFX=  1.000000  1.000000  1.000000  1.000000
 FoFCou: FMM=F IPFlag=           0 FMFlag=      100000 FMFlg1=           0
         NFxFlg=           0 DoJE=T BraDBF=F KetDBF=T FulRan=T
         Omega=  0.000000  0.000000  1.000000  0.000000  0.000000 ICntrl=     500 IOpCl=  0
         NMat0=    1 NMatS0=    1 NMatT0=    0 NMatD0=    1 NMtDS0=    0 NMtDT0=    0
         I1Cent=           4 NGrid=           0.
 Petite list used in FoFCou.
 Initial guess orbital symmetries:
       Occupied  (A) (A) (A) (A) (A) (A) (A) (A) (A) (A) (A) (A)
                 (A) (A) (A) (A) (A) (A) (A) (A) (A) (A) (A) (A)
                 (A) (A) (A) (A) (A) (A) (A) (A) (A) (A) (A) (A)
                 (A) (A) (A) (A) (A) (A) (A) (A) (A) (A) (A) (A)
                 (A) (A) (A) (A) (A) (A) (A) (A) (A) (A) (A) (A)
                 (A) (A) (A) (A) (A) (A) (A) (A) (A) (A) (A) (A)
                 (A) (A) (A) (A) (A) (A)
       Virtual   (A) (A) (A) (A) (A) (A) (A) (A) (A) (A) (A) (A)
                 (A) (A) (A) (A) (A) (A) (A) (A) (A) (A) (A) (A)
                 (A) (A) (A) (A) (A) (A) (A) (A) (A) (A) (A) (A)
                 (A) (A) (A) (A) (A) (A) (A) (A) (A) (A) (A) (A)
                 (A) (A) (A) (A) (A) (A) (A) (A) (A) (A) (A) (A)
                 (A) (A) (A) (A) (A) (A) (A) (A) (A) (A) (A) (A)
                 (A) (A) (A) (A) (A) (A) (A) (A) (A) (A) (A) (A)
                 (A) (A) (A) (A) (A) (A) (A) (A) (A) (A) (A) (A)
                 (A) (A) (A) (A) (A) (A) (A) (A) (A) (A) (A) (A)
                 (A) (A) (A) (A) (A) (A) (A) (A) (A) (A) (A) (A)
                 (A) (A) (A) (A) (A) (A) (A) (A) (A) (A) (A) (A)
                 (A) (A) (A) (A) (A) (A) (A) (A) (A) (A) (A) (A)
                 (A) (A) (A) (A) (A) (A) (A) (A) (A) (A) (A) (A)
                 (A) (A) (A) (A) (A) (A) (A) (A) (A) (A) (A) (A)
                 (A) (A) (A) (A) (A) (A) (A) (A) (A) (A) (A) (A)
                 (A) (A) (A) (A) (A) (A) (A) (A) (A) (A) (A) (A)
                 (A) (A) (A) (A) (A) (A) (A) (A) (A) (A) (A) (A)
                 (A) (A) (A) (A) (A) (A) (A) (A) (A) (A) (A) (A)
                 (A) (A) (A) (A) (A) (A) (A) (A) (A) (A) (A) (A)
                 (A) (A) (A) (A) (A) (A) (A) (A) (A) (A) (A) (A)
                 (A) (A) (A) (A) (A) (A) (A) (A) (A) (A) (A) (A)
                 (A) (A) (A) (A) (A) (A) (A) (A) (A) (A) (A) (A)
                 (A) (A) (A) (A) (A) (A) (A) (A) (A) (A) (A) (A)
                 (A) (A) (A) (A) (A) (A) (A) (A) (A) (A) (A) (A)
                 (A) (A) (A) (A) (A) (A) (A) (A) (A) (A) (A) (A)
                 (A) (A) (A) (A) (A) (A) (A) (A) (A) (A) (A) (A)
                 (A) (A) (A) (A) (A) (A) (A) (A) (A) (A) (A) (A)
                 (A)
 The electronic state of the initial guess is 1-A.
 Requested convergence on RMS density matrix=1.00D-08 within  64 cycles.
 Requested convergence on MAX density matrix=1.00D-06.
 Requested convergence on             energy=1.00D-06.
 No special actions if energy rises.
 Integral accuracy reduced to 1.0D-05 until final iterations.
 Initial convergence to 1.0D-05 achieved.  Increase integral accuracy.
 SCF Done:  E(RB3LYP) =  -921.897991843     A.U. after   14 cycles
             Convg  =    0.4190D-08             -V/T =  2.0097
 QCSCF skips out because SCF is already converged.

 **********************************************************************

            Population analysis using the SCF density.

 **********************************************************************

 Orbital symmetries:
       Occupied  (A) (A) (A) (A) (A) (A) (A) (A) (A) (A) (A) (A)
                 (A) (A) (A) (A) (A) (A) (A) (A) (A) (A) (A) (A)
                 (A) (A) (A) (A) (A) (A) (A) (A) (A) (A) (A) (A)
                 (A) (A) (A) (A) (A) (A) (A) (A) (A) (A) (A) (A)
                 (A) (A) (A) (A) (A) (A) (A) (A) (A) (A) (A) (A)
                 (A) (A) (A) (A) (A) (A) (A) (A) (A) (A) (A) (A)
                 (A) (A) (A) (A) (A) (A)
       Virtual   (A) (A) (A) (A) (A) (A) (A) (A) (A) (A) (A) (A)
                 (A) (A) (A) (A) (A) (A) (A) (A) (A) (A) (A) (A)
                 (A) (A) (A) (A) (A) (A) (A) (A) (A) (A) (A) (A)
                 (A) (A) (A) (A) (A) (A) (A) (A) (A) (A) (A) (A)
                 (A) (A) (A) (A) (A) (A) (A) (A) (A) (A) (A) (A)
                 (A) (A) (A) (A) (A) (A) (A) (A) (A) (A) (A) (A)
                 (A) (A) (A) (A) (A) (A) (A) (A) (A) (A) (A) (A)
                 (A) (A) (A) (A) (A) (A) (A) (A) (A) (A) (A) (A)
                 (A) (A) (A) (A) (A) (A) (A) (A) (A) (A) (A) (A)
                 (A) (A) (A) (A) (A) (A) (A) (A) (A) (A) (A) (A)
                 (A) (A) (A) (A) (A) (A) (A) (A) (A) (A) (A) (A)
                 (A) (A) (A) (A) (A) (A) (A) (A) (A) (A) (A) (A)
                 (A) (A) (A) (A) (A) (A) (A) (A) (A) (A) (A) (A)
                 (A) (A) (A) (A) (A) (A) (A) (A) (A) (A) (A) (A)
                 (A) (A) (A) (A) (A) (A) (A) (A) (A) (A) (A) (A)
                 (A) (A) (A) (A) (A) (A) (A) (A) (A) (A) (A) (A)
                 (A) (A) (A) (A) (A) (A) (A) (A) (A) (A) (A) (A)
                 (A) (A) (A) (A) (A) (A) (A) (A) (A) (A) (A) (A)
                 (A) (A) (A) (A) (A) (A) (A) (A) (A) (A) (A) (A)
                 (A) (A) (A) (A) (A) (A) (A) (A) (A) (A) (A) (A)
                 (A) (A) (A) (A) (A) (A) (A) (A) (A) (A) (A) (A)
                 (A) (A) (A) (A) (A) (A) (A) (A) (A) (A) (A) (A)
                 (A) (A) (A) (A) (A) (A) (A) (A) (A) (A) (A) (A)
                 (A) (A) (A) (A) (A) (A) (A) (A) (A) (A) (A) (A)
                 (A) (A) (A) (A) (A) (A) (A) (A) (A) (A) (A) (A)
                 (A) (A) (A) (A) (A) (A) (A) (A) (A) (A) (A) (A)
                 (A) (A) (A) (A) (A) (A) (A) (A) (A) (A) (A) (A)
                 (A)
 The electronic state is 1-A.
 Alpha  occ. eigenvalues --  -10.19918 -10.19912 -10.19908 -10.19902 -10.19898
 Alpha  occ. eigenvalues --  -10.19885 -10.19869 -10.19861 -10.19854 -10.19825
 Alpha  occ. eigenvalues --  -10.19822 -10.19802 -10.19301 -10.19291 -10.19277
 Alpha  occ. eigenvalues --  -10.19277 -10.19276 -10.19274 -10.19235 -10.19225
 Alpha  occ. eigenvalues --  -10.19212 -10.19212 -10.19211 -10.19209  -0.90179
 Alpha  occ. eigenvalues --   -0.86553  -0.86552  -0.81899  -0.81893  -0.80258
 Alpha  occ. eigenvalues --   -0.77173  -0.75765  -0.74051  -0.74039  -0.70883
 Alpha  occ. eigenvalues --   -0.70874  -0.63184  -0.63157  -0.62898  -0.62888
 Alpha  occ. eigenvalues --   -0.62055  -0.56130  -0.55288  -0.53645  -0.53639
 Alpha  occ. eigenvalues --   -0.53149  -0.51043  -0.47199  -0.47177  -0.45544
 Alpha  occ. eigenvalues --   -0.45532  -0.45369  -0.45359  -0.42493  -0.42210
 Alpha  occ. eigenvalues --   -0.41805  -0.41784  -0.41430  -0.39902  -0.39887
 Alpha  occ. eigenvalues --   -0.37997  -0.37996  -0.37284  -0.37245  -0.35778
 Alpha  occ. eigenvalues --   -0.35736  -0.35647  -0.32624  -0.32623  -0.31403
 Alpha  occ. eigenvalues --   -0.31359  -0.31092  -0.26616  -0.26378  -0.24734
 Alpha  occ. eigenvalues --   -0.24727  -0.20042  -0.20033
 Alpha virt. eigenvalues --   -0.05203  -0.05197  -0.01109  -0.01091   0.00916
 Alpha virt. eigenvalues --    0.02233   0.06890   0.07041   0.09649   0.09668
 Alpha virt. eigenvalues --    0.09836   0.10743   0.11879   0.12545   0.13838
 Alpha virt. eigenvalues --    0.14677   0.15824   0.16497   0.18286   0.18409
 Alpha virt. eigenvalues --    0.18446   0.18535   0.20662   0.21222   0.22555
 Alpha virt. eigenvalues --    0.25462   0.25622   0.25677   0.27156   0.27273
 Alpha virt. eigenvalues --    0.27407   0.28527   0.28807   0.28957   0.29027
 Alpha virt. eigenvalues --    0.29171   0.30626   0.33651   0.33666   0.34615
 Alpha virt. eigenvalues --    0.36005   0.36160   0.41636   0.43724   0.45154
 Alpha virt. eigenvalues --    0.45629   0.46733   0.46821   0.48649   0.49711
 Alpha virt. eigenvalues --    0.50023   0.51143   0.51869   0.51896   0.52201
 Alpha virt. eigenvalues --    0.52711   0.53692   0.54672   0.54708   0.55412
 Alpha virt. eigenvalues --    0.55647   0.55992   0.56076   0.56720   0.56933
 Alpha virt. eigenvalues --    0.57039   0.58549   0.58587   0.58735   0.58823
 Alpha virt. eigenvalues --    0.59086   0.59306   0.59724   0.59780   0.60010
 Alpha virt. eigenvalues --    0.60153   0.60400   0.62048   0.62093   0.62098
 Alpha virt. eigenvalues --    0.63046   0.63053   0.63353   0.63700   0.63752
 Alpha virt. eigenvalues --    0.63957   0.66075   0.68580   0.69418   0.70155
 Alpha virt. eigenvalues --    0.70869   0.70897   0.71636   0.71669   0.76434
 Alpha virt. eigenvalues --    0.76503   0.78574   0.81367   0.81404   0.81422
 Alpha virt. eigenvalues --    0.81765   0.82755   0.82872   0.84128   0.85171
 Alpha virt. eigenvalues --    0.85559   0.85671   0.85755   0.85828   0.85909
 Alpha virt. eigenvalues --    0.88801   0.88808   0.90352   0.92062   0.92946
 Alpha virt. eigenvalues --    0.94164   0.94311   0.94723   0.95355   0.95720
 Alpha virt. eigenvalues --    0.97419   0.99296   0.99654   1.00148   1.01413
 Alpha virt. eigenvalues --    1.01672   1.02192   1.02557   1.02687   1.04656
 Alpha virt. eigenvalues --    1.05602   1.08026   1.11068   1.15297   1.15624
 Alpha virt. eigenvalues --    1.16070   1.16128   1.16454   1.17042   1.20662
 Alpha virt. eigenvalues --    1.20997   1.22543   1.23054   1.25061   1.25081
 Alpha virt. eigenvalues --    1.26734   1.26763   1.26982   1.27074   1.30037
 Alpha virt. eigenvalues --    1.30064   1.31078   1.31964   1.35444   1.40549
 Alpha virt. eigenvalues --    1.40574   1.40843   1.40863   1.42386   1.43101
 Alpha virt. eigenvalues --    1.43787   1.45920   1.47174   1.47209   1.47601
 Alpha virt. eigenvalues --    1.47614   1.48066   1.48552   1.48587   1.49457
 Alpha virt. eigenvalues --    1.52361   1.52399   1.52644   1.52775   1.61326
 Alpha virt. eigenvalues --    1.61388   1.64671   1.64693   1.68973   1.70352
 Alpha virt. eigenvalues --    1.70504   1.71359   1.72856   1.77425   1.77449
 Alpha virt. eigenvalues --    1.77892   1.77910   1.78393   1.78412   1.82051
 Alpha virt. eigenvalues --    1.82701   1.82744   1.86004   1.86015   1.87681
 Alpha virt. eigenvalues --    1.89140   1.91285   1.91335   1.91952   1.94217
 Alpha virt. eigenvalues --    1.94253   1.94526   1.94621   1.95552   1.95738
 Alpha virt. eigenvalues --    1.95989   1.96096   1.98319   2.01174   2.01216
 Alpha virt. eigenvalues --    2.01355   2.01373   2.03979   2.05008   2.06757
 Alpha virt. eigenvalues --    2.06850   2.06886   2.08550   2.14811   2.14886
 Alpha virt. eigenvalues --    2.14923   2.14948   2.16954   2.23329   2.23601
 Alpha virt. eigenvalues --    2.23656   2.25719   2.25811   2.26071   2.26090
 Alpha virt. eigenvalues --    2.26157   2.26202   2.26412   2.26910   2.30198
 Alpha virt. eigenvalues --    2.30428   2.33101   2.34109   2.34296   2.34335
 Alpha virt. eigenvalues --    2.34366   2.35499   2.35566   2.35791   2.40599
 Alpha virt. eigenvalues --    2.41433   2.41897   2.42114   2.44864   2.45000
 Alpha virt. eigenvalues --    2.49699   2.49814   2.56942   2.57056   2.62211
 Alpha virt. eigenvalues --    2.62439   2.62984   2.63026   2.70627   2.70778
 Alpha virt. eigenvalues --    2.71022   2.71223   2.71914   2.73365   2.73366
 Alpha virt. eigenvalues --    2.75327   2.75422   2.77628   2.78241   2.79667
 Alpha virt. eigenvalues --    2.81784   2.83359   2.83375   2.83460   2.83657
 Alpha virt. eigenvalues --    2.85421   2.86440   2.88448   2.92684   2.92747
 Alpha virt. eigenvalues --    2.99370   3.00539   3.00645   3.02515   3.04312
 Alpha virt. eigenvalues --    3.08284   3.08644   3.23394   3.31169   3.31328
 Alpha virt. eigenvalues --    3.40883   3.40987   3.47567   3.56969   3.64616
 Alpha virt. eigenvalues --    3.84684   4.07648   4.08426   4.08576   4.10366
 Alpha virt. eigenvalues --    4.10410   4.10491   4.12506   4.15987   4.16051
 Alpha virt. eigenvalues --    4.16133   4.16209   4.16755   4.26718   4.26767
 Alpha virt. eigenvalues --    4.32783   4.34763   4.34935   4.35669   4.40283
 Alpha virt. eigenvalues --    4.47999   4.53108   4.53269   4.75154   4.75231
 Alpha virt. eigenvalues --    5.01985   5.27089   5.39875   5.46893  37.53576
          Condensed to atoms (all electrons):
              1          2          3          4          5          6
     1  C    5.394527   0.231860   0.231705  -0.017025  -0.016611  -0.089277
     2  C    0.231860   5.393814  -0.017136   0.231064  -0.089675  -0.016814
     3  C    0.231705  -0.017136   5.396072  -0.089814   0.229662  -0.016745
     4  C   -0.017025   0.231064  -0.089814   5.396131  -0.016281   0.231700
     5  C   -0.016611  -0.089675   0.229662  -0.016281   5.396703   0.231599
     6  C   -0.089277  -0.016814  -0.016745   0.231700   0.231599   5.393141
     7  C    0.434409  -0.053578  -0.053846   0.014465   0.014516  -0.000833
     8  C   -0.052852   0.436084   0.014315  -0.054336  -0.000845   0.014191
     9  C   -0.053614   0.014263   0.436311  -0.000838  -0.054394   0.014206
    10  C    0.014179  -0.053369  -0.000813   0.436064   0.014187  -0.053553
    11  C    0.014224  -0.000815  -0.053274   0.014197   0.435913  -0.053652
    12  C   -0.000804   0.014173   0.014205  -0.053525  -0.053421   0.436262
    13  C    0.009882   0.018155  -0.083040  -0.000124  -0.002306  -0.000002
    14  C   -0.084951   0.012242  -0.002345   0.018437   0.000004  -0.000130
    15  C    0.011860  -0.083953   0.018376  -0.002384  -0.000140   0.000001
    16  C   -0.000128   0.018253  -0.000001   0.011297  -0.002285  -0.083631
    17  C   -0.000129  -0.000001   0.018281  -0.002287   0.011368  -0.083671
    18  C    0.018381  -0.000127   0.011524  -0.000003  -0.083951  -0.002295
    19  C   -0.000002  -0.002285  -0.000128  -0.083629   0.018241   0.011255
    20  C   -0.002287  -0.000003  -0.083857  -0.000127   0.011290   0.018258
    21  C   -0.084525  -0.002321   0.012103   0.000001   0.018387  -0.000128
    22  C   -0.000002  -0.000128  -0.002290   0.018236  -0.083646   0.011227
    23  C    0.018363   0.011288  -0.000124  -0.083896  -0.000004  -0.002287
    24  C   -0.002291  -0.083743  -0.000003   0.011356  -0.000127   0.018248
    25  H    0.002971  -0.000230   0.001416   0.000003   0.000029  -0.000001
    26  H    0.001447   0.003174   0.000029  -0.000240  -0.000001   0.000003
    27  H    0.002961   0.001465  -0.000241   0.000029   0.000003  -0.000001
    28  H   -0.000001   0.000029   0.000002   0.001398  -0.000237   0.003233
    29  H    0.000002  -0.000001  -0.000237   0.000029   0.003236   0.001400
    30  H    0.001449   0.000029   0.003183  -0.000001  -0.000239   0.000003
    31  H    0.000029  -0.000001   0.001398   0.000002   0.003234  -0.000237
    32  H    0.000002  -0.000236  -0.000001   0.003231   0.000029   0.001398
    33  H   -0.000236   0.003233   0.000003   0.001398  -0.000001   0.000029
    34  H   -0.000238   0.000003   0.003241  -0.000001   0.001405   0.000029
    35  H   -0.000001   0.000002   0.000029  -0.000236   0.001397   0.003232
    36  H    0.000029   0.001400  -0.000001   0.003231   0.000002  -0.000237
    37  O    0.000000   0.000000   0.000000   0.000000   0.000000   0.000000
    38  H    0.000000   0.000000   0.000000   0.000000   0.000000   0.000000
    39  H    0.000000   0.000000   0.000000   0.000000   0.000000   0.000000
              7          8          9         10         11         12
     1  C    0.434409  -0.052852  -0.053614   0.014179   0.014224  -0.000804
     2  C   -0.053578   0.436084   0.014263  -0.053369  -0.000815   0.014173
     3  C   -0.053846   0.014315   0.436311  -0.000813  -0.053274   0.014205
     4  C    0.014465  -0.054336  -0.000838   0.436064   0.014197  -0.053525
     5  C    0.014516  -0.000845  -0.054394   0.014187   0.435913  -0.053421
     6  C   -0.000833   0.014191   0.014206  -0.053553  -0.053652   0.436262
     7  C    4.813384  -0.044539  -0.044734  -0.000111  -0.000112  -0.000002
     8  C   -0.044539   4.807491  -0.000108  -0.044202  -0.000002  -0.000110
     9  C   -0.044734  -0.000108   4.807973  -0.000002  -0.044232  -0.000110
    10  C   -0.000111  -0.044202  -0.000002   4.807930  -0.000111  -0.044221
    11  C   -0.000112  -0.000002  -0.044232  -0.000111   4.808253  -0.044276
    12  C   -0.000002  -0.000110  -0.000110  -0.044221  -0.044276   4.808276
    13  C    0.411183  -0.000497   0.013725  -0.000001   0.000073   0.000000
    14  C    0.015389   0.408772   0.000071  -0.000463   0.000000  -0.000001
    15  C    0.410435   0.014552  -0.000458   0.000074  -0.000001   0.000000
    16  C   -0.000001  -0.000455   0.000000   0.409928   0.000073   0.014395
    17  C   -0.000001   0.000000  -0.000452   0.000073   0.409798   0.014457
    18  C   -0.000507  -0.000001   0.410387   0.000000   0.014601   0.000074
    19  C    0.000000   0.000073  -0.000001   0.014421  -0.000458   0.409980
    20  C    0.000077   0.000000   0.014249  -0.000001   0.409818  -0.000462
    21  C    0.015934   0.000074   0.408857   0.000000  -0.000470  -0.000001
    22  C    0.000000  -0.000001   0.000073  -0.000460   0.014437   0.409993
    23  C   -0.000512   0.410431  -0.000001   0.014473   0.000000   0.000074
    24  C    0.000077   0.014343   0.000000   0.409895  -0.000001  -0.000460
    25  H   -0.036427   0.000009   0.001541   0.000000   0.000000   0.000000
    26  H    0.001655  -0.035446   0.000000   0.000014   0.000000   0.000000
    27  H   -0.035980   0.001455   0.000011   0.000000   0.000000   0.000000
    28  H    0.000000   0.000000   0.000000   0.001734   0.000014  -0.035899
    29  H    0.000000   0.000000   0.000014   0.000000  -0.035884   0.001734
    30  H    0.001689   0.000000  -0.035529   0.000000   0.000014   0.000000
    31  H    0.000000   0.000000   0.001723   0.000000  -0.035857   0.000014
    32  H    0.000000   0.000013   0.000000  -0.035895   0.000000   0.001735
    33  H    0.000013  -0.035846   0.000000   0.001735   0.000000   0.000000
    34  H    0.000013   0.000000  -0.035823   0.000000   0.001733   0.000000
[...]
     8  C    0.000073   0.000000   0.000075  -0.000001   0.410131   0.014275
     9  C   -0.000001   0.014210   0.410117   0.000073  -0.000001   0.000000
    10  C    0.014432  -0.000001   0.000000  -0.000460   0.014462   0.409974
    11  C   -0.000458   0.409867  -0.000468   0.014452   0.000000  -0.000001
    12  C    0.409981  -0.000461  -0.000001   0.409988   0.000073  -0.000458
    13  C    0.000000  -0.000424   0.432752   0.000000  -0.000013   0.000001
    14  C    0.000001   0.000000  -0.000440   0.000000  -0.102086   0.008972
    15  C    0.000000   0.000001   0.009013   0.000000   0.008975  -0.000426
    16  C    0.432917   0.000001   0.000000   0.009022   0.009012  -0.102241
    17  C    0.009020  -0.102263  -0.000013   0.432857   0.000000   0.000001
    18  C    0.000001   0.433173  -0.102199  -0.000429   0.000000   0.000000
    19  C    5.186524  -0.000013   0.000000  -0.102211  -0.000430   0.009017
    20  C   -0.000013   5.186656   0.008975   0.009017   0.000000   0.000000
    21  C    0.000000   0.008975   5.188262   0.000001   0.000001   0.000000
    22  C   -0.102211   0.009017   0.000001   5.186489   0.000001  -0.000013
    23  C   -0.000430   0.000000   0.000001   0.000001   5.186378   0.433163
    24  C    0.009017   0.000000   0.000000  -0.000013   0.433163   5.186474
    25  H    0.000000   0.000003  -0.037211   0.000000   0.000000   0.000000
    26  H    0.000000   0.000000   0.000003   0.000000  -0.006874   0.000189
    27  H    0.000000   0.000000   0.000202   0.000000  -0.000198   0.000003
    28  H    0.350800   0.000000   0.000000  -0.006858   0.000003  -0.000205
    29  H   -0.000205  -0.006854   0.000000  -0.037489   0.000000   0.000000
    30  H    0.000000   0.000190   0.350433   0.000000   0.000000   0.000000
    31  H    0.000000   0.350855  -0.000204   0.000189   0.000000   0.000000
    32  H   -0.037480   0.000000   0.000000  -0.000205   0.000190  -0.006852
    33  H    0.000003   0.000000   0.000000   0.000000   0.350666  -0.037474
    34  H    0.000000  -0.037479  -0.006816   0.000003   0.000000   0.000000
    35  H   -0.006855  -0.000204   0.000000   0.350821   0.000000   0.000000
    36  H    0.000190   0.000000   0.000000   0.000000  -0.037485   0.350842
             25         26         27         28         29         30
     1  C    0.003265   0.001411   0.003364  -0.000001   0.000002   0.001418
     2  C   -0.000236   0.003244   0.001393   0.000029  -0.000001   0.000029
     3  C    0.001369   0.000029  -0.000244   0.000003  -0.000237   0.003251
     4  C    0.000002  -0.000238   0.000029   0.001398   0.000029  -0.000001
     5  C    0.000028  -0.000001   0.000003  -0.000237   0.003234  -0.000237
     6  C   -0.000001   0.000002  -0.000001   0.003234   0.001399   0.000002
     7  C   -0.035829   0.001734  -0.036074   0.000000   0.000000   0.001744
     8  C    0.000014  -0.035916   0.001676   0.000000   0.000000   0.000000
     9  C    0.001668   0.000000   0.000014   0.000000   0.000013  -0.035893
    10  C    0.000000   0.000014   0.000000   0.001734   0.000000   0.000000
    11  C    0.000000   0.000000   0.000000   0.000014  -0.035886   0.000014
    12  C    0.000000   0.000000   0.000000  -0.035902   0.001734   0.000000
    13  C    0.350988  -0.000205  -0.007170   0.000000   0.000000  -0.037619
    14  C    0.000196   0.350507  -0.037357   0.000000   0.000000   0.000003
    15  C   -0.007057  -0.037448   0.350614   0.000000   0.000000  -0.000207
    16  C    0.000000   0.000000   0.000000  -0.037489   0.000003   0.000000
    17  C    0.000000   0.000000   0.000000   0.000191   0.350777   0.000000
    18  C   -0.000198   0.000000   0.000000   0.000000   0.000190  -0.006884
    19  C    0.000000   0.000000   0.000000   0.350800  -0.000205   0.000000
    20  C    0.000003   0.000000   0.000000   0.000000  -0.006854   0.000190
    21  C   -0.037211   0.000003   0.000202   0.000000   0.000000   0.350433
    22  C    0.000000   0.000000   0.000000  -0.006858  -0.037489   0.000000
    23  C    0.000000  -0.006874  -0.000198   0.000003   0.000000   0.000000
    24  C    0.000000   0.000189   0.000003  -0.000205   0.000000   0.000000
    25  H    0.589943  -0.000011   0.006795   0.000000   0.000000  -0.004350
    26  H   -0.000011   0.591457  -0.004354   0.000000   0.000000   0.000000
    27  H    0.006795  -0.004354   0.591375   0.000000   0.000000  -0.000011
    28  H    0.000000   0.000000   0.000000   0.591216  -0.000011   0.000000
    29  H    0.000000   0.000000   0.000000  -0.000011   0.591225   0.000000
    30  H   -0.004350   0.000000  -0.000011   0.000000   0.000000   0.591836
    31  H    0.000000   0.000000   0.000000   0.000000   0.006489  -0.000011
    32  H    0.000000   0.000000   0.000000  -0.004463   0.000000   0.000000
    33  H    0.000000   0.006523  -0.000011   0.000000   0.000000   0.000000
    34  H   -0.000011   0.000000   0.000000   0.000000  -0.000011   0.006520
    35  H    0.000000   0.000000   0.000000   0.006495  -0.004461   0.000000
    36  H    0.000000  -0.000011   0.000000  -0.000011   0.000000   0.000000
             31         32         33         34         35         36
     1  C    0.000029   0.000003  -0.000237  -0.000239  -0.000001   0.000029
     2  C   -0.000001  -0.000237   0.003241   0.000003   0.000002   0.001397
     3  C    0.001396  -0.000001   0.000003   0.003248   0.000029  -0.000001
     4  C    0.000003   0.003230   0.001401  -0.000001  -0.000236   0.003232
     5  C    0.003234   0.000029  -0.000001   0.001406   0.001397   0.000003
     6  C   -0.000237   0.001399   0.000029   0.000029   0.003233  -0.000237
     7  C    0.000000   0.000000   0.000014   0.000014   0.000000   0.000000
     8  C    0.000000   0.000014  -0.035831   0.000000   0.000000   0.001734
     9  C    0.001734   0.000000   0.000000  -0.035818   0.000000   0.000000
    10  C    0.000000  -0.035895   0.001734   0.000000   0.000014  -0.035890
    11  C   -0.035883   0.000000   0.000000   0.001732   0.001733   0.000000
    12  C    0.000014   0.001735   0.000000   0.000000  -0.035890   0.000014
    13  C    0.000003   0.000000   0.000000   0.000183   0.000000   0.000000
    14  C    0.000000   0.000000  -0.006833   0.000000   0.000000  -0.000204
    15  C    0.000000   0.000000   0.000185   0.000000   0.000000   0.000003
    16  C    0.000000   0.350799  -0.000205   0.000000   0.000191  -0.006848
    17  C   -0.006848   0.000003   0.000000  -0.000205  -0.037484   0.000000
    18  C   -0.037487   0.000000   0.000000   0.350611   0.000003   0.000000
    19  C    0.000000  -0.037480   0.000003   0.000000  -0.006855   0.000190
    20  C    0.350855   0.000000   0.000000  -0.037479  -0.000204   0.000000
    21  C   -0.000204   0.000000   0.000000  -0.006816   0.000000   0.000000
    22  C    0.000189  -0.000205   0.000000   0.000003   0.350821   0.000000
    23  C    0.000000   0.000190   0.350666   0.000000   0.000000  -0.037485
    24  C    0.000000  -0.006852  -0.037474   0.000000   0.000000   0.350842
    25  H    0.000000   0.000000   0.000000  -0.000011   0.000000   0.000000
    26  H    0.000000   0.000000   0.006523   0.000000   0.000000  -0.000011
    27  H    0.000000   0.000000  -0.000011   0.000000   0.000000   0.000000
    28  H    0.000000  -0.004463   0.000000   0.000000   0.006495  -0.000011
    29  H    0.006489   0.000000   0.000000  -0.000011  -0.004461   0.000000
    30  H   -0.000011   0.000000   0.000000   0.006520   0.000000   0.000000
    31  H    0.591136   0.000000   0.000000  -0.004474  -0.000011   0.000000
    32  H    0.000000   0.591192  -0.000011   0.000000  -0.000011   0.006488
    33  H    0.000000  -0.000011   0.591263   0.000000   0.000000  -0.004469
    34  H   -0.004474   0.000000   0.000000   0.591312   0.000000   0.000000
    35  H   -0.000011  -0.000011   0.000000   0.000000   0.591122   0.000000
    36  H    0.000000   0.006488  -0.004469   0.000000   0.000000   0.591141
 Mulliken atomic charges:
              1
     1  C    0.015378
     2  C    0.013089
     3  C    0.011314
     4  C    0.013525
     5  C    0.013983
     6  C    0.013405
     7  C    0.139509
     8  C    0.144834
     9  C    0.146060
    10  C    0.144151
    11  C    0.144081
    12  C    0.144045
    13  C   -0.205871
    14  C   -0.209894
    15  C   -0.206759
    16  C   -0.208854
    17  C   -0.208962
    18  C   -0.209329
    19  C   -0.208790
    20  C   -0.208563
    21  C   -0.210632
    22  C   -0.208675
    23  C   -0.209126
    24  C   -0.208700
    25  H    0.130634
    26  H    0.129944
    27  H    0.129953
    28  H    0.130060
    29  H    0.130059
    30  H    0.129774
    31  H    0.130075
    32  H    0.130075
    33  H    0.130012
    34  H    0.129993
    35  H    0.130115
    36  H    0.130085
    37  O    0.000000
    38  H    0.000000
    39  H    0.000000
 Sum of Mulliken atomic charges =   0.00000
 Mulliken charges with hydrogens summed into heavy atoms:
              1
     1  C    0.015378
     2  C    0.013089
     3  C    0.011314
     4  C    0.013525
     5  C    0.013983
     6  C    0.013405
     7  C    0.139509
     8  C    0.144834
     9  C    0.146060
    10  C    0.144151
    11  C    0.144081
    12  C    0.144045
    13  C   -0.075237
    14  C   -0.079950
    15  C   -0.076806
    16  C   -0.078779
    17  C   -0.078903
    18  C   -0.079336
    19  C   -0.078730
    20  C   -0.078488
    21  C   -0.080858
    22  C   -0.078560
    23  C   -0.079114
    24  C   -0.078615
    37  O    0.000000
 Sum of Mulliken charges with hydrogens summed into heavy atoms =   0.00000
          Condensed to fragments (all electrons):
     1       0.000000
     2       0.000000
 Electronic spatial extent (au):  <R**2>=           6275.5194
 Charge=              0.0000 electrons
 Dipole moment (field-independent basis, Debye):
    X=             -0.0003    Y=             -0.0035    Z=              0.0002  Tot=              0.0035
 Quadrupole moment (field-independent basis, Debye-Ang):
   XX=           -116.4084   YY=           -116.5139   ZZ=           -141.4502
   XY=             -0.0263   XZ=             -0.1309   YZ=              0.0004
 Traceless Quadrupole moment (field-independent basis, Debye-Ang):
   XX=              8.3825   YY=              8.2769   ZZ=            -16.6593
   XY=             -0.0263   XZ=             -0.1309   YZ=              0.0004
 Octapole moment (field-independent basis, Debye-Ang**2):
  XXX=            145.8871  YYY=              0.0803  ZZZ=              1.7516  XYY=             48.3097
  XXY=             -0.1570  XXZ=              0.6033  XZZ=             59.0056  YZZ=             -0.0064
  YYZ=              0.4740  XYZ=              0.0027
 Hexadecapole moment (field-independent basis, Debye-Ang**3):
 XXXX=          -3937.7773 YYYY=          -3814.5714 ZZZZ=           -146.9675 XXXY=             -0.3545
 XXXZ=              6.9058 YYYX=              0.4465 YYYZ=             -0.0334 ZZZX=             11.1577
 ZZZY=             -0.0369 XXYY=          -1293.2200 XXZZ=           -822.1260 YYZZ=           -796.8069
 XXYZ=             -0.0002 YYXZ=              2.3130 ZZXY=              0.1441
 N-N= 1.830054836127D+03 E-N=-5.794897362267D+03  KE= 9.130402869035D+02
 Counterpoise: doing MCBS calculation for fragment   2
 Basis read from rwf:  (6D, 7F)
 There are    19 symmetry adapted basis functions of A   symmetry.
 Integral buffers will be    131072 words long.
 Raffenetti 2 integral format.
 Two-electron integral symmetry is turned on.
    19 basis functions,    36 primitive gaussians,    19 cartesian basis functions
     5 alpha electrons        5 beta electrons
       nuclear repulsion energy         9.0826663068 Hartrees.
 NAtoms=   39 NActive=    3 NUniq=    3 SFac= 1.00D+00 NAtFMM=   50 NAOKFM=F Big=F
 One-electron integrals computed using PRISM.
 NBasis=    19 RedAO= T  NBF=    19
 NBsUse=    19 1.00D-06 NBFU=    19
 Harris functional with IExCor=  402 diagonalized for initial guess.
 ExpMin= 1.61D-01 ExpMax= 5.48D+03 ExpMxC= 8.25D+02 IAcc=1 IRadAn=         1 AccDes= 0.00D+00
 HarFok:  IExCor=  402 AccDes= 0.00D+00 IRadAn=         1 IDoV= 1
 ScaDFX=  1.000000  1.000000  1.000000  1.000000
 FoFCou: FMM=F IPFlag=           0 FMFlag=      100000 FMFlg1=           0
         NFxFlg=           0 DoJE=T BraDBF=F KetDBF=T FulRan=T
         Omega=  0.000000  0.000000  1.000000  0.000000  0.000000 ICntrl=     500 IOpCl=  0
         NMat0=    1 NMatS0=    1 NMatT0=    0 NMatD0=    1 NMtDS0=    0 NMtDT0=    0
         I1Cent=           4 NGrid=           0.
 Petite list used in FoFCou.
 Initial guess orbital symmetries:
       Occupied  (A) (A) (A) (A) (A)
       Virtual   (A) (A) (A) (A) (A) (A) (A) (A) (A) (A) (A) (A)
                 (A) (A)
 The electronic state of the initial guess is 1-A.
 Requested convergence on RMS density matrix=1.00D-08 within  64 cycles.
 Requested convergence on MAX density matrix=1.00D-06.
 Requested convergence on             energy=1.00D-06.
 No special actions if energy rises.
 Keep R1 ints in memory in canonical form, NReq=911956.
 Integral accuracy reduced to 1.0D-05 until final iterations.
 Initial convergence to 1.0D-05 achieved.  Increase integral accuracy.
 SCF Done:  E(RB3LYP) =  -76.4089453349     A.U. after   10 cycles
             Convg  =    0.1359D-08             -V/T =  2.0078
 QCSCF skips out because SCF is already converged.

 **********************************************************************

            Population analysis using the SCF density.

 **********************************************************************

 Orbital symmetries:
       Occupied  (A) (A) (A) (A) (A)
       Virtual   (A) (A) (A) (A) (A) (A) (A) (A) (A) (A) (A) (A)
                 (A) (A)
 The electronic state is 1-A.
 Alpha  occ. eigenvalues --  -19.13794  -0.99722  -0.51792  -0.37106  -0.29097
 Alpha virt. eigenvalues --    0.06257   0.14812   0.77435   0.85900   0.89092
 Alpha virt. eigenvalues --    0.89459   1.06621   1.19135   1.73083   1.74605
 Alpha virt. eigenvalues --    1.78053   2.28028   2.57728   3.55269
          Condensed to atoms (all electrons):
              1          2          3
     1  O    8.289870   0.242666   0.242666
     2  H    0.242666   0.392789  -0.023055
     3  H    0.242666  -0.023055   0.392788
 Mulliken atomic charges:
              1
     1  C    0.000000
     2  C    0.000000
     3  C    0.000000
     4  C    0.000000
     5  C    0.000000
     6  C    0.000000
     7  C    0.000000
     8  C    0.000000
     9  C    0.000000
    10  C    0.000000
    11  C    0.000000
    12  C    0.000000
    13  C    0.000000
    14  C    0.000000
    15  C    0.000000
    16  C    0.000000
    17  C    0.000000
    18  C    0.000000
    19  C    0.000000
    20  C    0.000000
    21  C    0.000000
    22  C    0.000000
    23  C    0.000000
    24  C    0.000000
    25  H    0.000000
    26  H    0.000000
    27  H    0.000000
    28  H    0.000000
    29  H    0.000000
    30  H    0.000000
    31  H    0.000000
    32  H    0.000000
    33  H    0.000000
    34  H    0.000000
    35  H    0.000000
    36  H    0.000000
    37  O   -0.775202
    38  H    0.387601
    39  H    0.387601
 Sum of Mulliken atomic charges =   0.00000
 Mulliken charges with hydrogens summed into heavy atoms:
              1
     1  C    0.000000
     2  C    0.000000
     3  C    0.000000
     4  C    0.000000
     5  C    0.000000
     6  C    0.000000
     7  C    0.000000
     8  C    0.000000
     9  C    0.000000
    10  C    0.000000
    11  C    0.000000
    12  C    0.000000
    13  C    0.000000
    14  C    0.000000
    15  C    0.000000
    16  C    0.000000
    17  C    0.000000
    18  C    0.000000
    19  C    0.000000
    20  C    0.000000
    21  C    0.000000
    22  C    0.000000
    23  C    0.000000
    24  C    0.000000
    37  O    0.000000
 Sum of Mulliken charges with hydrogens summed into heavy atoms =   0.00000
          Condensed to fragments (all electrons):
     1       0.000000
     2       0.000000
 Electronic spatial extent (au):  <R**2>=           1524.7869
 Charge=              0.0000 electrons
 Dipole moment (field-independent basis, Debye):
    X=              0.7536    Y=              1.9405    Z=              0.1498  Tot=              2.0870
 Quadrupole moment (field-independent basis, Debye-Ang):
   XX=              2.7831   YY=             -6.1628   ZZ=             -4.2627
   XY=             13.0433   XZ=              0.8059   YZ=              0.0764
 Traceless Quadrupole moment (field-independent basis, Debye-Ang):
   XX=              5.3306   YY=             -3.6154   ZZ=             -1.7152
   XY=             13.0433   XZ=              0.8059   YZ=              0.0764
 Octapole moment (field-independent basis, Debye-Ang**2):
  XXX=            -41.0622  YYY=              1.1058  ZZZ=             -0.5649  XYY=            -39.9132
  XXY=             87.9257  XXZ=              3.6632  XZZ=            -27.3428  YZZ=              1.1230
  YYZ=             -0.4312  XYZ=              0.4458
 Hexadecapole moment (field-independent basis, Debye-Ang**3):
 XXXX=           -950.6943 YYYY=             -6.1762 ZZZZ=             -6.0817 XXXY=            594.0090
 XXXZ=             10.4978 YYYX=              7.0553 YYYZ=              0.0243 ZZZX=             -3.5937
 ZZZY=              0.2774 XXYY=           -260.4174 XXZZ=           -177.4515 YYZZ=             -1.8312
 XXYZ=              2.5539 YYXZ=             -2.8224 ZZXY=              7.4219
 N-N= 9.082666306815D+00 E-N=-1.987461805037D+02  KE= 7.581699247972D+01
 Counterpoise: corrected energy =    -998.308247247217
 Counterpoise: BSSE energy =       0.004152049669
 1\1\GINC-COMPUTE-0-2\SP\RB3LYP\6-31G(d)\C24H14O1\VIJI\12-Jun-2025\0\\#
  b3lyp/6-31g(d) geom=connectivity counterpoise=2 scf=xqc\\WaC4-cp\\0,1
 \C,0,1.00944,-0.013025,-0.011708\C,0,0.307146,1.229715,-0.008001\C,0,0
 .284662,-1.242458,-0.007938\C,0,-1.120348,1.2429,-0.000414\C,0,-1.1426
 49,-1.229746,-0.000325\C,0,-1.845357,0.012989,0.003445\C,0,2.430422,-0
 .026929,-0.019086\C,0,1.029699,2.454004,-0.011837\C,0,0.985891,-2.4789
 8,-0.011715\C,0,-1.819999,2.480433,0.003283\C,0,-1.864443,-2.454382,0.
 003489\C,0,-3.26689,0.025771,0.011057\C,0,3.110256,-1.279353,-0.022714
 \C,0,2.453335,2.409164,-0.019166\C,0,3.129228,1.214578,-0.022654\C,0,-
 3.243911,2.462527,0.010915\C,0,-3.287763,-2.410817,0.011144\C,0,0.2360
 92,-3.689801,-0.007815\C,0,-3.94079,1.28029,0.014648\C,0,-1.136275,-3.
 678211,-0.000464\C,0,2.410091,-2.460188,-0.019207\C,0,-3.96343,-1.2162
 93,0.014771\C,0,0.302129,3.678148,-0.008079\C,0,-1.070224,3.691074,-0.
 000769\H,0,4.197286,-1.276762,-0.028164\H,0,3.001881,3.34857,-0.022208
 \H,0,4.215716,1.186839,-0.027742\H,0,-5.028218,1.287197,0.020435\H,0,-
 3.837552,-3.349089,0.014075\H,0,2.942222,-3.408732,-0.022166\H,0,-1.69
 0509,-4.613872,0.002435\H,0,-3.776816,3.410499,0.013746\H,0,0.856826,4
 .613615,-0.011161\H,0,0.774047,-4.634886,-0.010805\H,0,-5.050795,-1.20
 3559,0.020568\H,0,-1.607641,4.636481,0.002013\O,0,6.465577,-0.111175,0
 .055836\H,0,6.745464,0.47587,-0.662656\H,0,6.615607,0.408764,0.859783\
 \Version=AM64L-G09RevB.01\State=1-A\HF=-76.4089453\RMSD=1.359e-09\Dipo
 le=0.6505408,0.6468186,0.0559158\Quadrupole=12.1467176,1.911969,-14.05
 86866,9.0573887,0.5002005,0.0600482\PG=C01 [X(C24H14O1)]\\@


     ON THE SURVIVAL OF THE FITTEST -
 "STRONG REPRESENTATIVES FROM EACH PAST ERA THRIVE TODAY,
 SUCH AS PROGRAMMING IN THE THIRTY YEAR OLD LANGUAGE KNOWN
 AS FORTRAN, AND EVEN IN THE ANCIENT SCRIPT KNOWN AS DIRECT
 MACHINE CODE. SOME PEOPLE MIGHT LOOK ON SUCH RELICS AS LIVING
 FOSSILS; OTHERS WOULD POINT OUT THAT EVEN A VERY OLD SPECIES
 MIGHT STILL BE FILLING A PARTICULAR ECOLOGICAL NICHE."
     -- ALAN KAY, SCI.AM. SEPTEMBER 1984
 Job cpu time:  0 days  1 hours 10 minutes 13.1 seconds.
 File lengths (MBytes):  RWF=    132 Int=      0 D2E=      0 Chk=     23 Scr=      1
 Normal termination of Gaussian 09 at Thu Jun 12 13:48:22 2025.
